SINGLE DSPC MOLECULE
 1792
    1DSPC   NC3    1   3.585   4.701   1.337
    1DSPC   PO4    2   3.716   4.244   1.312
    1DSPC   GL1    3   3.801   3.949   1.017
    1DSPC   GL2    4   3.679   4.011   0.740
    1DSPC   C1A    5   3.579   3.498   1.175
    1DSPC   C2A    6   3.304   3.094   0.963
    1DSPC   C3A    7   2.911   2.944   0.951
    1DSPC   C4A    8   2.645   3.004   0.529
    1DSPC   C5A    9   2.505   3.075   0.193
    1DSPC   C1B   10   3.502   3.839   0.368
    1DSPC   C2B   11   3.266   3.578   0.011
    1DSPC   C3B   12   3.245   3.284  -0.376
    1DSPC   C4B   13   2.916   3.285  -0.649
    1DSPC   C5B   14   2.733   3.285  -1.138
    2DSPC   NC3   15   4.750   1.707   2.405
    2DSPC   PO4   16   5.150   1.522   2.221
    2DSPC   GL1   17   5.329   1.142   2.159
    2DSPC   GL2   18   5.217   0.919   2.342
    2DSPC   C1A   19   5.840   1.186   2.281
    2DSPC   C2A   20   6.215   0.905   2.536
    2DSPC   C3A   21   6.427   0.909   2.900
    2DSPC   C4A   22   6.304   0.572   3.251
    2DSPC   C5A   23   6.170   0.299   3.465
    2DSPC   C1B   24   5.310   0.544   2.566
    2DSPC   C2B   25   5.502   0.165   2.832
    2DSPC   C3B   26   5.676  -0.285   2.891
    2DSPC   C4B   27   5.661  -0.491   3.266
    2DSPC   C5B   28   5.561  -0.922   3.543
    3DSPC   NC3   29   7.999   3.399   2.370
    3DSPC   PO4   30   7.645   3.111   2.232
    3DSPC   GL1   31   7.365   3.075   1.914
    3DSPC   GL2   32   7.317   3.338   1.759
    3DSPC   C1A   33   6.901   2.944   2.124
    3DSPC   C2A   34   6.386   3.070   2.064
    3DSPC   C3A   35   6.084   3.289   2.259
    3DSPC   C4A   36   5.946   3.731   2.064
    3DSPC   C5A   37   5.887   4.043   1.872
    3DSPC   C1B   38   7.021   3.585   1.533
    3DSPC   C2B   39   6.623   3.825   1.345
    3DSPC   C3B   40   6.282   3.912   1.010
    3DSPC   C4B   41   6.093   4.294   0.968
    3DSPC   C5B   42   5.924   4.686   0.666
    4DSPC   NC3   43   6.996   2.332   5.296
    4DSPC   PO4   44   6.592   2.549   5.428
    4DSPC   GL1   45   6.403   2.928   5.390
    4DSPC   GL2   46   6.598   3.158   5.324
    4DSPC   C1A   47   6.191   3.047   5.857
    4DSPC   C2A   48   6.140   3.472   6.175
    4DSPC   C3A   49   6.297   3.624   6.534
    4DSPC   C4A   50   6.622   4.006   6.510
    4DSPC   C5A   51   6.851   4.287   6.427
    4DSPC   C1B   52   6.688   3.593   5.378
    4DSPC   C2B   53   6.750   4.067   5.529
    4DSPC   C3B   54   6.654   4.543   5.526
    4DSPC   C4B   55   6.943   4.837   5.644
    4DSPC   C5B   56   7.188   5.290   5.562
    5DSPC   NC3   57   3.736   6.247   2.603
    5DSPC   PO4   58   3.424   6.221   2.243
    5DSPC   GL1   59   3.303   6.449   1.906
    5DSPC   GL2   60   3.377   6.748   1.924
    5DSPC   C1A   61   2.777   6.430   1.881
    5DSPC   C2A   62   2.371   6.760   1.781
    5DSPC   C3A   63   2.063   6.962   1.985
    5DSPC   C4A   64   2.109   7.457   2.054
    5DSPC   C5A   65   2.198   7.818   2.068
    5DSPC   C1B   66   3.256   7.165   1.818
    5DSPC   C2B   67   3.029   7.599   1.711
    5DSPC   C3B   68   2.884   7.958   1.417
    5DSPC   C4B   69   2.808   8.355   1.557
    5DSPC   C5B   70   2.861   8.872   1.505
    6DSPC   NC3   71   4.173   4.616   5.889
    6DSPC   PO4   72   4.643   4.539   5.889
    6DSPC   GL1   73   4.924   4.267   5.722
    6DSPC   GL2   74   4.801   3.998   5.634
    6DSPC   C1A   75   5.273   4.149   6.099
    6DSPC   C2A   76   5.531   3.720   6.283
    6DSPC   C3A   77   5.525   3.459   6.613
    6DSPC   C4A   78   5.339   2.997   6.548
    6DSPC   C5A   79   5.196   2.673   6.436
    6DSPC   C1B   80   4.867   3.558   5.589
    6DSPC   C2B   81   4.995   3.075   5.621
    6DSPC   C3B   82   5.230   2.673   5.480
    6DSPC   C4B   83   5.087   2.279   5.567
    6DSPC   C5B   84   4.982   1.791   5.414
    7DSPC   NC3   85   5.775   3.721   6.933
    7DSPC   PO4   86   5.332   3.745   6.756
    7DSPC   GL1   87   4.948   3.888   6.868
    7DSPC   GL2   88   4.912   3.923   7.173
    7DSPC   C1A   89   4.595   3.525   6.722
    7DSPC   C2A   90   4.155   3.296   6.917
    7DSPC   C3A   91   4.030   2.930   7.083
    7DSPC   C4A   92   3.947   2.908   7.578
    7DSPC   C5A   93   3.899   2.957   7.943
    7DSPC   C1B   94   4.626   3.904   7.515
    7DSPC   C2B   95   4.265   3.807   7.850
    7DSPC   C3B   96   3.854   3.901   8.090
    7DSPC   C4B   97   3.773   3.743   8.479
    7DSPC   C5B   98   3.605   3.810   8.969
    8DSPC   NC3   99   4.662   5.771   6.987
    8DSPC   PO4  100   5.010   5.862   6.674
    8DSPC   GL1  101   5.435   5.864   6.657
    8DSPC   GL2  102   5.571   5.885   6.934
    8DSPC   C1A  103   5.581   6.294   6.391
    8DSPC   C2A  104   5.953   6.675   6.421
    8DSPC   C3A  105   5.989   7.081   6.525
    8DSPC   C4A  106   6.205   7.198   6.963
    8DSPC   C5A  107   6.375   7.219   7.293
    8DSPC   C1B  108   5.922   6.041   7.161
    8DSPC   C2B  109   6.311   6.293   7.353
    8DSPC   C3B  110   6.782   6.367   7.446
    8DSPC   C4B  111   6.918   6.596   7.781
    8DSPC   C5B  112   7.238   6.655   8.190
    9DSPC   NC3  113   1.381   4.337   6.666
    9DSPC   PO4  114   1.023   4.032   6.583
    9DSPC   GL1  115   0.931   3.707   6.325
    9DSPC   GL2  116   1.101   3.700   6.067
    9DSPC   C1A  117   0.432   3.767   6.167
    9DSPC   C2A  118   0.146   3.716   5.720
    9DSPC   C3A  119  -0.040   3.957   5.429
    9DSPC   C4A  120   0.177   3.995   4.978
    9DSPC   C5A  121   0.381   3.979   4.667
    9DSPC   C1B  122   1.109   3.595   5.633
    9DSPC   C2B  123   1.023   3.507   5.147
    9DSPC   C3B  124   0.959   3.222   4.758
    9DSPC   C4B  125   1.042   3.354   4.359
    9DSPC   C5B  126   1.254   3.272   3.889
   10DSPC   NC3  127   1.916   0.153   3.102
   10DSPC   PO4  128   1.927   0.455   3.471
   10DSPC   GL1  129   1.658   0.636   3.747
   10DSPC   GL2  130   1.365   0.640   3.651
   10DSPC   C1A  131   1.800   1.140   3.799
   10DSPC   C2A  132   1.567   1.619   3.833
   10DSPC   C3A  133   1.505   1.963   3.599
   10DSPC   C4A  134   1.047   2.042   3.408
   10DSPC   C5A  135   0.692   2.046   3.300
   10DSPC   C1B  136   0.978   0.863   3.656
   10DSPC   C2B  137   0.601   1.194   3.661
   10DSPC   C3B  138   0.227   1.428   3.864
   10DSPC   C4B  139  -0.091   1.599   3.633
   10DSPC   C5B  140  -0.600   1.678   3.552
   11DSPC   NC3  141   3.624   1.156   6.502
   11DSPC   PO4  142   4.019   1.296   6.275
   11DSPC   GL1  143   4.394   1.137   6.153
   11DSPC   GL2  144   4.479   0.884   6.308
   11DSPC   C1A  145   4.762   1.500   6.253
   11DSPC   C2A  146   5.258   1.521   6.448
   11DSPC   C3A  147   5.460   1.640   6.798
   11DSPC   C4A  148   5.634   1.282   7.105
   11DSPC   C5A  149   5.739   0.976   7.287
   11DSPC   C1B  150   4.822   0.650   6.474
   11DSPC   C2B  151   5.247   0.477   6.675
   11DSPC   C3B  152   5.678   0.253   6.663
   11DSPC   C4B  153   5.849   0.063   7.006
   11DSPC   C5B  154   6.092  -0.344   7.226
   12DSPC   NC3  155   5.293   5.316   1.385
   12DSPC   PO4  156   5.286   5.782   1.489
   12DSPC   GL1  157   5.530   6.072   1.680
   12DSPC   GL2  158   5.738   5.953   1.874
   12DSPC   C1A  159   5.215   6.374   1.975
   12DSPC   C2A  160   5.216   6.599   2.459
   12DSPC   C3A  161   5.037   6.549   2.836
   12DSPC   C4A  162   5.316   6.360   3.209
   12DSPC   C5A  163   5.571   6.222   3.441
   12DSPC   C1B  164   5.966   6.012   2.254
   12DSPC   C2B  165   6.139   6.123   2.711
   12DSPC   C3B  166   6.422   6.362   3.026
   12DSPC   C4B  167   6.531   6.200   3.407
   12DSPC   C5B  168   6.892   6.100   3.771
   13DSPC   NC3  169   4.613   7.735   2.725
   13DSPC   PO4  170   4.486   7.902   3.153
   13DSPC   GL1  171   4.649   7.945   3.543
   13DSPC   GL2  172   4.888   7.758   3.600
   13DSPC   C1A  173   4.274   7.812   3.888
   13DSPC   C2A  174   4.230   7.538   4.343
   13DSPC   C3A  175   4.082   7.170   4.483
   13DSPC   C4A  176   4.412   6.810   4.601
   13DSPC   C5A  177   4.702   6.590   4.675
   13DSPC   C1B  178   5.103   7.519   3.910
   13DSPC   C2B  179   5.254   7.235   4.295
   13DSPC   C3B  180   5.472   7.156   4.722
   13DSPC   C4B  181   5.632   6.774   4.832
   13DSPC   C5B  182   6.017   6.485   5.033
   14DSPC   NC3  183   6.468   5.011   0.893
   14DSPC   PO4  184   6.050   5.209   0.777
   14DSPC   GL1  185   5.902   5.563   0.595
   14DSPC   GL2  186   6.102   5.798   0.596
   14DSPC   C1A  187   5.486   5.724   0.875
   14DSPC   C2A  188   5.282   6.181   1.059
   14DSPC   C3A  189   5.241   6.392   1.421
   14DSPC   C4A  190   5.533   6.793   1.498
   14DSPC   C5A  191   5.771   7.078   1.494
   14DSPC   C1B  192   6.150   6.242   0.619
   14DSPC   C2B  193   6.125   6.735   0.705
   14DSPC   C3B  194   6.039   7.197   0.583
   14DSPC   C4B  195   6.230   7.527   0.779
   14DSPC   C5B  196   6.480   7.984   0.756
   15DSPC   NC3  197   2.902   5.405   1.244
   15DSPC   PO4  198   2.663   5.367   1.655
   15DSPC   GL1  199   2.389   5.103   1.844
   15DSPC   GL2  200   2.237   4.918   1.648
   15DSPC   C1A  201   2.021   5.397   2.079
   15DSPC   C2A  202   1.492   5.396   2.148
   15DSPC   C3A  203   1.150   5.598   2.010
   15DSPC   C4A  204   0.848   5.360   1.686
   15DSPC   C5A  205   0.665   5.133   1.456
   15DSPC   C1B  206   1.854   4.705   1.564
   15DSPC   C2B  207   1.382   4.543   1.513
   15DSPC   C3B  208   1.005   4.252   1.612
   15DSPC   C4B  209   0.690   4.181   1.331
   15DSPC   C5B  210   0.368   3.851   1.086
   16DSPC   NC3  211   1.088   3.598   2.669
   16DSPC   PO4  212   1.493   3.699   2.899
   16DSPC   GL1  213   1.637   3.974   3.190
   16DSPC   GL2  214   1.466   4.230   3.216
   16DSPC   C1A  215   2.114   4.134   3.034
   16DSPC   C2A  216   2.395   4.587   3.011
   16DSPC   C3A  217   2.528   4.869   2.728
   16DSPC   C4A  218   2.298   5.315   2.710
   16DSPC   C5A  219   2.094   5.623   2.749
   16DSPC   C1B  220   1.468   4.668   3.301
   16DSPC   C2B  221   1.558   5.159   3.352
   16DSPC   C3B  222   1.665   5.561   3.602
   16DSPC   C4B  223   1.551   5.952   3.470
   16DSPC   C5B  224   1.348   6.423   3.569
   17DSPC   NC3  225   5.853   7.817  -0.166
   17DSPC   PO4  226   6.271   7.845   0.061
   17DSPC   GL1  227   6.508   7.616   0.330
   17DSPC   GL2  228   6.348   7.405   0.488
   17DSPC   C1A  229   6.704   7.947   0.689
   17DSPC   C2A  230   6.788   7.960   1.216
   17DSPC   C3A  231   6.629   8.141   1.561
   17DSPC   C4A  232   6.356   7.858   1.874
   17DSPC   C5A  233   6.170   7.599   2.064
   17DSPC   C1B  234   6.309   7.183   0.874
   17DSPC   C2B  235   6.298   7.019   1.347
   17DSPC   C3B  236   6.452   6.751   1.722
   17DSPC   C4B  237   6.196   6.639   2.046
   17DSPC   C5B  238   6.015   6.277   2.377
   18DSPC   NC3  239   1.511  -0.050   4.898
   18DSPC   PO4  240   1.484   0.009   5.370
   18DSPC   GL1  241   1.617   0.282   5.668
   18DSPC   GL2  242   1.857   0.455   5.581
   18DSPC   C1A  243   1.784  -0.002   6.079
   18DSPC   C2A  244   2.187   0.002   6.429
   18DSPC   C3A  245   2.543  -0.208   6.511
   18DSPC   C4A  246   2.980   0.012   6.399
   18DSPC   C5A  247   3.267   0.226   6.299
   18DSPC   C1B  248   2.229   0.663   5.714
   18DSPC   C2B  249   2.655   0.821   5.926
   18DSPC   C3B  250   2.924   1.115   6.204
   18DSPC   C4B  251   3.344   1.171   6.142
   18DSPC   C5B  252   3.758   1.487   6.102
   19DSPC   NC3  253   5.866   5.044   6.659
   19DSPC   PO4  254   5.673   4.743   6.344
   19DSPC   GL1  255   5.385   4.431   6.332
   19DSPC   GL2  256   5.328   4.303   6.608
   19DSPC   C1A  257   5.580   4.046   6.031
   19DSPC   C2A  258   5.607   3.513   6.032
   19DSPC   C3A  259   5.887   3.206   6.099
   19DSPC   C4A  260   5.858   2.946   6.528
   19DSPC   C5A  261   5.783   2.791   6.856
   19DSPC   C1B  262   5.221   3.927   6.825
   19DSPC   C2B  263   5.154   3.462   6.999
   19DSPC   C3B  264   4.895   3.061   7.091
   19DSPC   C4B  265   4.995   2.789   7.406
   19DSPC   C5B  266   4.852   2.494   7.812
   20DSPC   NC3  267   3.209   7.203   2.990
   20DSPC   PO4  268   2.957   7.564   3.173
   20DSPC   GL1  269   2.772   7.673   3.539
   20DSPC   GL2  270   2.714   7.434   3.726
   20DSPC   C1A  271   2.304   7.885   3.424
   20DSPC   C2A  272   1.804   7.870   3.608
   20DSPC   C3A  273   1.429   7.707   3.507
   20DSPC   C4A  274   1.261   7.314   3.770
   20DSPC   C5A  275   1.192   7.031   4.001
   20DSPC   C1B  276   2.438   7.266   4.035
   20DSPC   C2B  277   2.058   7.123   4.328
   20DSPC   C3B  278   1.795   7.124   4.737
   20DSPC   C4B  279   1.554   6.792   4.858
   20DSPC   C5B  280   1.391   6.460   5.227
   21DSPC   NC3  281   4.769   7.406   6.843
   21DSPC   PO4  282   4.314   7.542   6.798
   21DSPC   GL1  283   3.932   7.368   6.733
   21DSPC   GL2  284   3.943   7.087   6.605
   21DSPC   C1A  285   3.676   7.673   6.388
   21DSPC   C2A  286   3.361   7.616   5.962
   21DSPC   C3A  287   3.377   7.658   5.543
   21DSPC   C4A  288   3.394   7.242   5.263
   21DSPC   C5A  289   3.400   6.902   5.113
   21DSPC   C1B  290   3.740   6.798   6.331
   21DSPC   C2B  291   3.488   6.555   5.972
   21DSPC   C3B  292   3.116   6.296   5.797
   21DSPC   C4B  293   3.154   6.039   5.457
   21DSPC   C5B  294   3.066   5.581   5.222
   22DSPC   NC3  295   5.513   3.286   3.185
   22DSPC   PO4  296   5.701   3.458   3.588
   22DSPC   GL1  297   5.581   3.681   3.929
   22DSPC   GL2  298   5.323   3.845   3.887
   22DSPC   C1A  299   5.961   4.031   4.032
   22DSPC   C2A  300   6.003   4.542   4.178
   22DSPC   C3A  301   6.106   4.916   4.013
   22DSPC   C4A  302   5.738   5.243   3.917
   22DSPC   C5A  303   5.426   5.440   3.873
   22DSPC   C1B  304   5.103   4.220   3.992
   22DSPC   C2B  305   4.945   4.680   4.112
   22DSPC   C3B  306   4.756   5.015   4.409
   22DSPC   C4B  307   4.552   5.363   4.264
   22DSPC   C5B  308   4.147   5.691   4.285
   23DSPC   NC3  309   2.585   6.744   6.628
   23DSPC   PO4  310   2.853   6.397   6.440
   23DSPC   GL1  311   2.805   6.026   6.239
   23DSPC   GL2  312   2.528   5.895   6.282
   23DSPC   C1A  313   3.157   5.689   6.440
   23DSPC   C2A  314   3.179   5.178   6.591
   23DSPC   C3A  315   3.192   4.948   6.943
   23DSPC   C4A  316   2.777   4.700   7.081
   23DSPC   C5A  317   2.445   4.540   7.126
   23DSPC   C1B  318   2.304   5.511   6.322
   23DSPC   C2B  319   2.134   5.048   6.411
   23DSPC   C3B  320   1.994   4.600   6.284
   23DSPC   C4B  321   1.721   4.368   6.518
   23DSPC   C5B  322   1.302   4.058   6.551
   24DSPC   NC3  323   5.653   3.879   3.758
   24DSPC   PO4  324   6.083   3.933   3.557
   24DSPC   GL1  325   6.456   3.731   3.536
   24DSPC   GL2  326   6.502   3.530   3.766
   24DSPC   C1A  327   6.835   4.093   3.582
   24DSPC   C2A  328   7.304   4.150   3.829
   24DSPC   C3A  329   7.472   4.355   4.156
   24DSPC   C4A  330   7.579   4.093   4.571
   24DSPC   C5A  331   7.639   3.847   4.843
   24DSPC   C1B  332   6.804   3.340   4.035
   24DSPC   C2B  333   7.187   3.215   4.333
   24DSPC   C3B  334   7.598   2.980   4.442
   24DSPC   C4B  335   7.712   2.890   4.845
   24DSPC   C5B  336   7.894   2.553   5.200
   25DSPC   NC3  337   5.675  -1.452   3.088
   25DSPC   PO4  338   5.359  -1.174   2.864
   25DSPC   GL1  339   5.352  -0.818   2.631
   25DSPC   GL2  340   5.601  -0.639   2.668
   25DSPC   C1A  341   4.942  -0.531   2.794
   25DSPC   C2A  342   4.828  -0.020   2.897
   25DSPC   C3A  343   4.765   0.234   3.226
   25DSPC   C4A  344   5.127   0.560   3.350
   25DSPC   C5A  345   5.426   0.777   3.387
   25DSPC   C1B  346   5.756  -0.221   2.677
   25DSPC   C2B  347   5.843   0.271   2.728
   25DSPC   C3B  348   5.909   0.723   2.563
   25DSPC   C4B  349   6.131   1.017   2.781
   25DSPC   C5B  350   6.491   1.396   2.794
   26DSPC   NC3  351   0.304   2.390   8.313
   26DSPC   PO4  352   0.114   2.786   8.128
   26DSPC   GL1  353   0.141   3.021   7.775
   26DSPC   GL2  354   0.401   2.976   7.615
   26DSPC   C1A  355   0.144   3.527   7.920
   26DSPC   C2A  356   0.397   3.977   7.789
   26DSPC   C3A  357   0.695   4.234   7.941
   26DSPC   C4A  358   1.150   4.223   7.730
   26DSPC   C5A  359   1.459   4.171   7.531
   26DSPC   C1B  360   0.709   3.165   7.351
   26DSPC   C2B  361   1.037   3.457   7.110
   26DSPC   C3B  362   1.199   3.714   6.731
   26DSPC   C4B  363   1.615   3.789   6.663
   26DSPC   C5B  364   2.026   3.806   6.341
   27DSPC   NC3  365   7.436   4.985   0.541
   27DSPC   PO4  366   7.084   4.846   0.250
   27DSPC   GL1  367   6.666   4.905   0.200
   27DSPC   GL2  368   6.522   5.005   0.454
   27DSPC   C1A  369   6.452   4.438   0.086
   27DSPC   C2A  370   6.017   4.156   0.214
   27DSPC   C3A  371   5.908   3.823   0.447
   27DSPC   C4A  372   5.665   3.904   0.879
   27DSPC   C5A  373   5.487   4.028   1.181
   27DSPC   C1B  374   6.144   4.996   0.692
   27DSPC   C2B  375   5.713   4.894   0.926
   27DSPC   C3B  376   5.234   4.933   0.999
   27DSPC   C4B  377   5.052   4.861   1.380
   27DSPC   C5B  378   4.718   5.001   1.756
   28DSPC   NC3  379   5.089   5.460   5.553
   28DSPC   PO4  380   5.391   5.779   5.367
   28DSPC   GL1  381   5.461   6.198   5.373
   28DSPC   GL2  382   5.215   6.364   5.458
   28DSPC   C1A  383   5.573   6.348   4.880
   28DSPC   C2A  384   5.457   6.750   4.549
   28DSPC   C3A  385   5.222   6.828   4.209
   28DSPC   C4A  386   4.802   7.097   4.267
   28DSPC   C5A  387   4.511   7.303   4.373
   28DSPC   C1B  388   4.993   6.749   5.407
   28DSPC   C2B  389   4.776   7.174   5.255
   28DSPC   C3B  390   4.724   7.657   5.235
   28DSPC   C4B  391   4.349   7.845   5.148
   28DSPC   C5B  392   3.990   8.210   5.252
   29DSPC   NC3  393   1.595   3.370   1.956
   29DSPC   PO4  394   1.873   3.369   2.343
   29DSPC   GL1  395   1.949   3.127   2.684
   29DSPC   GL2  396   1.720   2.931   2.752
   29DSPC   C1A  397   1.994   3.447   3.100
   29DSPC   C2A  398   1.839   3.462   3.610
   29DSPC   C3A  399   1.559   3.660   3.855
   29DSPC   C4A  400   1.156   3.404   4.011
   29DSPC   C5A  401   0.886   3.163   4.095
   29DSPC   C1B  402   1.500   2.720   3.078
   29DSPC   C2B  403   1.270   2.565   3.495
   29DSPC   C3B  404   1.223   2.291   3.894
   29DSPC   C4B  405   0.843   2.204   4.071
   29DSPC   C5B  406   0.508   1.863   4.281
   30DSPC   NC3  407   4.048   4.656   4.372
   30DSPC   PO4  408   4.106   5.026   4.667
   30DSPC   GL1  409   4.403   5.190   4.923
   30DSPC   GL2  410   4.620   4.987   5.009
   30DSPC   C1A  411   4.164   5.343   5.366
   30DSPC   C2A  412   4.251   5.329   5.892
   30DSPC   C3A  413   4.117   5.125   6.234
   30DSPC   C4A  414   4.417   4.777   6.438
   30DSPC   C5A  415   4.682   4.539   6.542
   30DSPC   C1B  416   4.899   4.861   5.334
   30DSPC   C2B  417   5.140   4.750   5.760
   30DSPC   C3B  418   5.484   4.810   6.097
   30DSPC   C4B  419   5.622   4.491   6.346
   30DSPC   C5B  420   6.012   4.224   6.567
   31DSPC   NC3  421   6.572   4.067   2.196
   31DSPC   PO4  422   6.670   4.360   2.559
   31DSPC   GL1  423   6.518   4.458   2.943
   31DSPC   GL2  424   6.222   4.378   2.985
   31DSPC   C1A  425   6.536   4.982   2.993
   31DSPC   C2A  426   6.231   5.375   3.184
   31DSPC   C3A  427   5.986   5.688   3.045
   31DSPC   C4A  428   5.488   5.635   3.081
   31DSPC   C5A  429   5.134   5.538   3.138
   31DSPC   C1B  430   5.837   4.484   3.184
   31DSPC   C2B  431   5.433   4.695   3.393
   31DSPC   C3B  432   5.144   4.815   3.764
   31DSPC   C4B  433   4.725   4.889   3.716
   31DSPC   C5B  434   4.232   4.822   3.873
   32DSPC   NC3  435   1.566   2.139   4.456
   32DSPC   PO4  436   1.224   2.471   4.477
   32DSPC   GL1  437   0.804   2.496   4.539
   32DSPC   GL2  438   0.654   2.232   4.486
   32DSPC   C1A  439   0.613   2.844   4.193
   32DSPC   C2A  440   0.191   2.895   3.871
   32DSPC   C3A  441   0.096   2.874   3.461
   32DSPC   C4A  442  -0.155   2.471   3.296
   32DSPC   C5A  443  -0.341   2.155   3.237
   32DSPC   C1B  444   0.274   2.046   4.341
   32DSPC   C2B  445  -0.154   1.914   4.116
   32DSPC   C3B  446  -0.635   1.847   4.094
   32DSPC   C4B  447  -0.816   1.565   3.828
   32DSPC   C5B  448  -1.160   1.182   3.738
   33DSPC   NC3  449  -0.405   6.673   0.985
   33DSPC   PO4  450  -0.274   6.539   1.423
   33DSPC   GL1  451  -0.010   6.665   1.732
   33DSPC   GL2  452   0.219   6.848   1.635
   33DSPC   C1A  453   0.223   6.234   1.927
   33DSPC   C2A  454   0.707   6.081   2.088
   33DSPC   C3A  455   1.028   5.841   1.958
   33DSPC   C4A  456   1.442   6.067   1.786
   33DSPC   C5A  457   1.717   6.291   1.675
   33DSPC   C1B  458   0.645   6.970   1.693
   33DSPC   C2B  459   1.136   7.011   1.782
   33DSPC   C3B  460   1.525   7.158   2.033
   33DSPC   C4B  461   1.909   7.216   1.852
   33DSPC   C5B  462   2.340   7.503   1.785
   34DSPC   NC3  463   0.905   2.772   6.498
   34DSPC   PO4  464   0.968   2.358   6.270
   34DSPC   GL1  465   1.116   2.215   5.898
   34DSPC   GL2  466   1.121   2.428   5.675
   34DSPC   C1A  467   0.788   1.838   5.731
   34DSPC   C2A  468   0.560   1.681   5.275
   34DSPC   C3A  469   0.185   1.687   5.085
   34DSPC   C4A  470   0.114   2.009   4.707
   34DSPC   C5A  471   0.126   2.262   4.435
   34DSPC   C1B  472   1.078   2.505   5.237
   34DSPC   C2B  473   0.963   2.520   4.750
   34DSPC   C3B  474   1.051   2.451   4.277
   34DSPC   C4B  475   0.856   2.679   3.971
   34DSPC   C5B  476   0.878   2.954   3.527
   35DSPC   NC3  477   1.771   2.492   7.479
   35DSPC   PO4  478   1.440   2.274   7.214
   35DSPC   GL1  479   1.371   1.896   7.032
   35DSPC   GL2  480   1.627   1.729   6.989
   35DSPC   C1A  481   1.174   1.984   6.552
   35DSPC   C2A  482   1.228   1.793   6.057
   35DSPC   C3A  483   1.400   1.901   5.688
   35DSPC   C4A  484   1.822   1.670   5.545
   35DSPC   C5A  485   2.126   1.463   5.495
   35DSPC   C1B  486   1.835   1.431   6.729
   35DSPC   C2B  487   2.021   1.144   6.362
   35DSPC   C3B  488   2.066   0.732   6.109
   35DSPC   C4B  489   2.419   0.636   5.887
   35DSPC   C5B  490   2.789   0.294   5.748
   36DSPC   NC3  491   4.116   2.807   6.599
   36DSPC   PO4  492   3.711   2.819   6.347
   36DSPC   GL1  493   3.344   2.606   6.316
   36DSPC   GL2  494   3.356   2.320   6.430
   36DSPC   C1A  495   3.234   2.554   5.804
   36DSPC   C2A  496   3.046   2.180   5.473
   36DSPC   C3A  497   3.183   1.920   5.172
   36DSPC   C4A  498   3.228   1.432   5.281
   36DSPC   C5A  499   3.235   1.087   5.420
   36DSPC   C1B  500   3.206   1.901   6.393
   36DSPC   C2B  501   3.036   1.450   6.253
   36DSPC   C3B  502   2.700   1.101   6.213
   36DSPC   C4B  503   2.801   0.687   6.177
   36DSPC   C5B  504   2.727   0.189   6.316
   37DSPC   NC3  505   1.201   3.833   3.174
   37DSPC   PO4  506   1.558   4.082   3.370
   37DSPC   GL1  507   1.836   4.384   3.261
   37DSPC   GL2  508   1.881   4.409   2.957
   37DSPC   C1A  509   2.303   4.251   3.466
   37DSPC   C2A  510   2.816   4.250   3.322
   37DSPC   C3A  511   3.116   3.979   3.206
   37DSPC   C4A  512   3.249   3.962   2.722
   37DSPC   C5A  513   3.305   4.000   2.357
   37DSPC   C1B  514   2.175   4.505   2.634
   37DSPC   C2B  515   2.570   4.569   2.332
   37DSPC   C3B  516   2.908   4.833   2.104
   37DSPC   C4B  517   3.094   4.705   1.740
   37DSPC   C5B  518   3.257   4.806   1.254
   38DSPC   NC3  519   3.007   5.761   3.905
   38DSPC   PO4  520   2.937   6.096   4.238
   38DSPC   GL1  521   2.698   6.161   4.583
   38DSPC   GL2  522   2.444   5.985   4.595
   38DSPC   C1A  523   2.528   6.659   4.567
   38DSPC   C2A  524   2.079   6.931   4.664
   38DSPC   C3A  525   1.770   7.125   4.455
   38DSPC   C4A  526   1.321   6.901   4.431
   38DSPC   C5A  527   1.016   6.690   4.453
   38DSPC   C1B  528   2.018   5.961   4.726
   38DSPC   C2B  529   1.537   6.029   4.850
   38DSPC   C3B  530   1.166   6.065   5.162
   38DSPC   C4B  531   0.761   5.982   5.050
   38DSPC   C5B  532   0.301   5.755   5.148
   39DSPC   NC3  533   2.598   4.676   4.062
   39DSPC   PO4  534   2.878   4.296   4.132
   39DSPC   GL1  535   3.114   4.123   4.440
   39DSPC   GL2  536   3.195   4.321   4.662
   39DSPC   C1A  537   3.564   3.958   4.222
   39DSPC   C2A  538   4.085   3.955   4.336
   39DSPC   C3A  539   4.440   4.150   4.221
   39DSPC   C4A  540   4.638   4.489   4.534
   39DSPC   C5A  541   4.735   4.722   4.807
   39DSPC   C1B  542   3.509   4.435   4.959
   39DSPC   C2B  543   3.925   4.532   5.222
   39DSPC   C3B  544   4.242   4.458   5.583
   39DSPC   C4B  545   4.494   4.769   5.735
   39DSPC   C5B  546   4.702   5.026   6.139
   40DSPC   NC3  547   5.220   8.057   4.733
   40DSPC   PO4  548   5.208   8.083   5.210
   40DSPC   GL1  549   5.239   7.826   5.546
   40DSPC   GL2  550   5.182   7.529   5.483
   40DSPC   C1A  551   4.871   7.973   5.893
   40DSPC   C2A  552   4.518   7.744   6.221
   40DSPC   C3A  553   4.104   7.676   6.251
   40DSPC   C4A  554   3.932   7.212   6.163
   40DSPC   C5A  555   3.869   6.853   6.092
   40DSPC   C1B  556   5.016   7.144   5.637
   40DSPC   C2B  557   4.765   6.770   5.856
   40DSPC   C3B  558   4.710   6.405   6.173
   40DSPC   C4B  559   4.439   6.081   6.106
   40DSPC   C5B  560   4.336   5.569   6.107
   41DSPC   NC3  561   2.395   2.844   4.749
   41DSPC   PO4  562   2.490   3.061   4.335
   41DSPC   GL1  563   2.826   3.166   4.096
   41DSPC   GL2  564   3.092   3.175   4.252
   41DSPC   C1A  565   2.747   3.654   3.916
   41DSPC   C2A  566   3.027   4.102   3.842
   41DSPC   C3A  567   3.071   4.484   4.011
   41DSPC   C4A  568   3.485   4.579   4.281
   41DSPC   C5A  569   3.809   4.588   4.462
   41DSPC   C1B  570   3.491   3.372   4.290
   41DSPC   C2B  571   3.891   3.675   4.304
   41DSPC   C3B  572   4.319   3.842   4.147
   41DSPC   C4B  573   4.597   4.041   4.405
   41DSPC   C5B  574   5.084   4.110   4.580
   42DSPC   NC3  575  -0.121   4.833  -0.628
   42DSPC   PO4  576   0.151   4.764  -0.243
   42DSPC   GL1  577   0.179   4.899   0.159
   42DSPC   GL2  578   0.037   5.168   0.211
   42DSPC   C1A  579   0.688   4.981   0.264
   42DSPC   C2A  580   0.991   5.340   0.516
   42DSPC   C3A  581   1.258   5.653   0.428
   42DSPC   C4A  582   1.101   6.126   0.490
   42DSPC   C5A  583   0.929   6.448   0.559
   42DSPC   C1B  584   0.042   5.549   0.445
   42DSPC   C2B  585   0.145   5.967   0.701
   42DSPC   C3B  586   0.168   6.241   1.102
   42DSPC   C4B  587   0.158   6.669   1.089
   42DSPC   C5B  588  -0.024   7.124   1.270
   43DSPC   NC3  589   3.968   2.497   5.771
   43DSPC   PO4  590   4.283   2.670   5.457
   43DSPC   GL1  591   4.578   2.527   5.186
   43DSPC   GL2  592   4.678   2.242   5.249
   43DSPC   C1A  593   4.998   2.842   5.228
   43DSPC   C2A  594   5.529   2.798   5.245
   43DSPC   C3A  595   5.845   2.824   5.521
   43DSPC   C4A  596   6.065   2.398   5.672
   43DSPC   C5A  597   6.187   2.054   5.741
   43DSPC   C1B  598   5.027   1.963   5.237
   43DSPC   C2B  599   5.471   1.731   5.243
   43DSPC   C3B  600   5.847   1.498   5.041
   43DSPC   C4B  601   6.096   1.228   5.260
   43DSPC   C5B  602   6.347   0.771   5.297
   44DSPC   NC3  603   6.065   2.150  -0.911
   44DSPC   PO4  604   5.652   2.191  -0.676
   44DSPC   GL1  605   5.498   2.137  -0.284
   44DSPC   GL2  606   5.671   1.953  -0.106
   44DSPC   C1A  607   5.031   1.899  -0.328
   44DSPC   C2A  608   4.756   1.512  -0.085
   44DSPC   C3A  609   4.638   1.113  -0.149
   44DSPC   C4A  610   4.873   0.751   0.109
   44DSPC   C5A  611   5.078   0.534   0.329
   44DSPC   C1B  612   5.670   1.651   0.223
   44DSPC   C2B  613   5.583   1.283   0.552
   44DSPC   C3B  614   5.470   1.104   0.990
   44DSPC   C4B  615   5.594   0.715   1.119
   44DSPC   C5B  616   5.797   0.401   1.484
   45DSPC   NC3  617   3.114   5.457   6.436
   45DSPC   PO4  618   3.484   5.708   6.268
   45DSPC   GL1  619   3.775   5.684   5.959
   45DSPC   GL2  620   3.818   5.398   5.850
   45DSPC   C1A  621   4.236   5.833   6.165
   45DSPC   C2A  622   4.748   5.684   6.145
   45DSPC   C3A  623   5.035   5.490   6.385
   45DSPC   C4A  624   5.163   5.018   6.268
   45DSPC   C5A  625   5.217   4.678   6.131
   45DSPC   C1B  626   4.113   5.110   5.679
   45DSPC   C2B  627   4.508   4.831   5.548
   45DSPC   C3B  628   4.857   4.680   5.244
   45DSPC   C4B  629   5.033   4.291   5.271
   45DSPC   C5B  630   5.197   3.851   5.042
   46DSPC   NC3  631   4.668   1.563   1.406
   46DSPC   PO4  632   4.762   1.355   0.987
   46DSPC   GL1  633   4.558   1.238   0.633
   46DSPC   GL2  634   4.253   1.206   0.669
   46DSPC   C1A  635   4.739   0.764   0.495
   46DSPC   C2A  636   4.547   0.301   0.311
   46DSPC   C3A  637   4.468  -0.089   0.445
   46DSPC   C4A  638   3.990  -0.221   0.526
   46DSPC   C5A  639   3.622  -0.259   0.563
   46DSPC   C1B  640   3.888   0.981   0.542
   46DSPC   C2B  641   3.541   0.653   0.393
   46DSPC   C3B  642   3.224   0.463   0.077
   46DSPC   C4B  643   2.882   0.236   0.201
   46DSPC   C5B  644   2.373   0.129   0.166
   47DSPC   NC3  645   4.139   7.076   0.616
   47DSPC   PO4  646   3.912   7.147   1.030
   47DSPC   GL1  647   3.798   6.928   1.376
   47DSPC   GL2  648   3.787   6.623   1.333
   47DSPC   C1A  649   3.307   7.074   1.501
   47DSPC   C2A  650   2.853   6.847   1.665
   47DSPC   C3A  651   2.473   6.744   1.516
   47DSPC   C4A  652   2.377   6.260   1.422
   47DSPC   C5A  653   2.366   5.892   1.378
   47DSPC   C1B  654   3.584   6.241   1.445
   47DSPC   C2B  655   3.275   5.869   1.577
   47DSPC   C3B  656   3.097   5.533   1.880
   47DSPC   C4B  657   2.898   5.180   1.743
   47DSPC   C5B  658   2.825   4.664   1.765
   48DSPC   NC3  659   0.475   0.668   2.894
   48DSPC   PO4  660   0.397   0.862   2.465
   48DSPC   GL1  661   0.607   0.935   2.103
   48DSPC   GL2  662   0.914   0.934   2.133
   48DSPC   C1A  663   0.478   1.419   1.940
   48DSPC   C2A  664   0.718   1.845   1.728
   48DSPC   C3A  665   0.843   2.231   1.839
   48DSPC   C4A  666   1.335   2.312   1.906
   48DSPC   C5A  667   1.705   2.309   1.936
   48DSPC   C1B  668   1.300   1.109   1.990
   48DSPC   C2B  669   1.679   1.387   1.818
   48DSPC   C3B  670   2.010   1.521   1.488
   48DSPC   C4B  671   2.377   1.714   1.594
   48DSPC   C5B  672   2.895   1.761   1.547
   49DSPC   NC3  673   1.459   6.553   4.757
   49DSPC   PO4  674   1.576   6.319   4.358
   49DSPC   GL1  675   1.479   5.956   4.159
   49DSPC   GL2  676   1.356   5.741   4.343
   49DSPC   C1A  677   1.929   5.751   3.976
   49DSPC   C2A  678   2.163   5.273   3.938
   49DSPC   C3A  679   2.474   5.053   4.116
   49DSPC   C4A  680   2.353   4.680   4.430
   49DSPC   C5A  681   2.201   4.418   4.645
   49DSPC   C1B  682   1.320   5.303   4.426
   49DSPC   C2B  683   1.372   4.808   4.487
   49DSPC   C3B  684   1.285   4.342   4.380
   49DSPC   C4B  685   1.324   4.029   4.669
   49DSPC   C5B  686   1.138   3.597   4.897
   50DSPC   NC3  687   2.270   6.755   5.448
   50DSPC   PO4  688   2.731   6.864   5.507
   50DSPC   GL1  689   3.043   7.061   5.298
   50DSPC   GL2  690   2.996   7.083   4.993
   50DSPC   C1A  691   3.480   6.773   5.356
   50DSPC   C2A  692   3.892   6.609   5.060
   50DSPC   C3A  693   4.036   6.259   4.876
   50DSPC   C4A  694   3.997   6.219   4.376
   50DSPC   C5A  695   3.943   6.252   4.010
   50DSPC   C1B  696   3.187   7.089   4.589
   50DSPC   C2B  697   3.466   7.033   4.176
   50DSPC   C3B  698   3.782   7.179   3.838
   50DSPC   C4B  699   3.791   7.012   3.443
   50DSPC   C5B  700   3.817   7.074   2.925
   51DSPC   NC3  701   4.659   2.612   5.507
   51DSPC   PO4  702   4.238   2.669   5.725
   51DSPC   GL1  703   4.083   2.717   6.117
   51DSPC   GL2  704   4.274   2.618   6.340
   51DSPC   C1A  705   3.651   2.419   6.155
   51DSPC   C2A  706   3.422   2.091   6.508
   51DSPC   C3A  707   3.357   1.680   6.569
   51DSPC   C4A  708   3.630   1.445   6.920
   51DSPC   C5A  709   3.856   1.332   7.192
   51DSPC   C1B  710   4.303   2.432   6.745
   51DSPC   C2B  711   4.256   2.172   7.171
   51DSPC   C3B  712   4.157   2.120   7.644
   51DSPC   C4B  713   4.326   1.807   7.882
   51DSPC   C5B  714   4.558   1.647   8.321
   52DSPC   NC3  715   4.142   1.081   2.208
   52DSPC   PO4  716   4.255   1.059   2.671
   52DSPC   GL1  717   4.427   0.785   2.947
   52DSPC   GL2  718   4.414   0.490   2.856
   52DSPC   C1A  719   4.146   0.811   3.392
   52DSPC   C2A  720   3.948   0.478   3.758
   52DSPC   C3A  721   3.579   0.315   3.878
   52DSPC   C4A  722   3.483  -0.166   3.767
   52DSPC   C5A  723   3.475  -0.521   3.661
   52DSPC   C1B  724   4.374   0.065   2.986
   52DSPC   C2B  725   4.271  -0.375   3.202
   52DSPC   C3B  726   4.377  -0.771   3.463
   52DSPC   C4B  727   4.167  -1.141   3.417
   52DSPC   C5B  728   4.170  -1.661   3.367
   53DSPC   NC3  729   0.226   0.574   4.503
   53DSPC   PO4  730   0.586   0.752   4.246
   53DSPC   GL1  731   0.711   0.775   3.840
   53DSPC   GL2  732   0.582   0.562   3.657
   53DSPC   C1A  733   1.229   0.683   3.828
   53DSPC   C2A  734   1.579   0.413   3.530
   53DSPC   C3A  735   1.812   0.063   3.546
   53DSPC   C4A  736   1.668  -0.332   3.270
   53DSPC   C5A  737   1.514  -0.583   3.045
   53DSPC   C1B  738   0.639   0.299   3.301
   53DSPC   C2B  739   0.797  -0.001   2.932
   53DSPC   C3B  740   0.914  -0.106   2.472
   53DSPC   C4B  741   0.895  -0.503   2.314
   53DSPC   C5B  742   0.757  -0.834   1.934
   54DSPC   NC3  743   3.444   6.213   3.869
   54DSPC   PO4  744   3.487   5.867   3.543
   54DSPC   GL1  745   3.508   5.824   3.121
   54DSPC   GL2  746   3.392   6.064   2.965
   54DSPC   C1A  747   3.211   5.410   2.989
   54DSPC   C2A  748   2.860   5.274   2.611
   54DSPC   C3A  749   2.446   5.217   2.563
   54DSPC   C4A  750   2.185   5.567   2.315
   54DSPC   C5A  751   2.051   5.855   2.122
   54DSPC   C1B  752   3.176   6.196   2.596
   54DSPC   C2B  753   2.886   6.257   2.192
   54DSPC   C3B  754   2.801   6.286   1.715
   54DSPC   C4B  755   2.470   6.504   1.552
   54DSPC   C5B  756   2.277   6.841   1.203
   55DSPC   NC3  757   3.525   5.062   5.141
   55DSPC   PO4  758   3.570   5.278   4.718
   55DSPC   GL1  759   3.484   5.204   4.309
   55DSPC   GL2  760   3.449   4.905   4.240
   55DSPC   C1A  761   3.897   5.370   4.027
   55DSPC   C2A  762   4.185   5.208   3.609
   55DSPC   C3A  763   4.564   5.044   3.524
   55DSPC   C4A  764   4.590   4.558   3.401
   55DSPC   C5A  765   4.543   4.200   3.313
   55DSPC   C1B  766   3.506   4.588   3.930
   55DSPC   C2B  767   3.650   4.285   3.559
   55DSPC   C3B  768   3.614   4.084   3.117
   55DSPC   C4B  769   3.776   3.699   3.025
   55DSPC   C5B  770   3.728   3.227   2.806
   56DSPC   NC3  771   5.536   2.414   3.063
   56DSPC   PO4  772   5.628   2.213   2.640
   56DSPC   GL1  773   5.435   1.966   2.353
   56DSPC   GL2  774   5.197   1.805   2.465
   56DSPC   C1A  775   5.786   1.609   2.189
   56DSPC   C2A  776   5.802   1.089   2.074
   56DSPC   C3A  777   5.947   0.728   2.237
   56DSPC   C4A  778   5.617   0.408   2.439
   56DSPC   C5A  779   5.327   0.215   2.567
   56DSPC   C1B  780   4.965   1.424   2.441
   56DSPC   C2B  781   4.791   0.956   2.394
   56DSPC   C3B  782   4.544   0.600   2.174
   56DSPC   C4B  783   4.385   0.265   2.387
   56DSPC   C5B  784   3.991  -0.065   2.484
   57DSPC   NC3  785   7.761   2.350   2.881
   57DSPC   PO4  786   7.836   2.172   2.445
   57DSPC   GL1  787   7.613   2.052   2.104
   57DSPC   GL2  788   7.317   1.989   2.164
   57DSPC   C1A  789   7.824   1.603   1.926
   57DSPC   C2A  790   7.659   1.134   1.734
   57DSPC   C3A  791   7.628   0.731   1.854
   57DSPC   C4A  792   7.173   0.551   1.967
   57DSPC   C5A  793   6.815   0.477   2.032
   57DSPC   C1B  794   6.964   1.736   2.056
   57DSPC   C2B  795   6.636   1.383   1.919
   57DSPC   C3B  796   6.311   1.179   1.621
   57DSPC   C4B  797   6.004   0.915   1.761
   57DSPC   C5B  798   5.505   0.761   1.763
   58DSPC   NC3  799   3.618   2.099   4.380
   58DSPC   PO4  800   3.578   2.124   3.906
   58DSPC   GL1  801   3.730   1.931   3.559
   58DSPC   GL2  802   3.995   1.779   3.607
   58DSPC   C1A  803   3.840   2.305   3.205
   58DSPC   C2A  804   4.224   2.420   2.852
   58DSPC   C3A  805   4.545   2.687   2.803
   58DSPC   C4A  806   5.012   2.513   2.863
   58DSPC   C5A  807   5.328   2.325   2.915
   58DSPC   C1B  808   4.385   1.651   3.429
   58DSPC   C2B  809   4.817   1.595   3.183
   58DSPC   C3B  810   5.108   1.396   2.849
   58DSPC   C4B  811   5.535   1.387   2.890
   58DSPC   C5B  812   5.987   1.129   2.861
   59DSPC   NC3  813   1.270   5.527   5.809
   59DSPC   PO4  814   0.875   5.778   5.903
   59DSPC   GL1  815   0.722   6.170   5.846
   59DSPC   GL2  816   0.941   6.383   5.798
   59DSPC   C1A  817   0.478   6.311   6.291
   59DSPC   C2A  818   0.433   6.742   6.603
   59DSPC   C3A  819   0.568   6.884   6.975
   59DSPC   C4A  820   0.925   7.238   6.980
   59DSPC   C5A  821   1.182   7.498   6.918
   59DSPC   C1B  822   1.061   6.809   5.860
   59DSPC   C2B  823   1.147   7.278   6.015
   59DSPC   C3B  824   1.091   7.761   6.003
   59DSPC   C4B  825   1.391   8.031   6.147
   59DSPC   C5B  826   1.679   8.462   6.087
   60DSPC   NC3  827   5.461   2.300  -0.673
   60DSPC   PO4  828   5.425   2.594  -0.299
   60DSPC   GL1  829   5.677   2.820  -0.042
   60DSPC   GL2  830   5.970   2.723  -0.037
   60DSPC   C1A  831   5.497   2.762   0.449
   60DSPC   C2A  832   5.693   2.688   0.939
   60DSPC   C3A  833   5.730   2.383   1.228
   60DSPC   C4A  834   6.181   2.174   1.297
   60DSPC   C5A  835   6.536   2.064   1.304
   60DSPC   C1B  836   6.339   2.674   0.210
   60DSPC   C2B  837   6.689   2.603   0.562
   60DSPC   C3B  838   7.043   2.745   0.863
   60DSPC   C4B  839   7.348   2.479   1.002
   60DSPC   C5B  840   7.851   2.377   1.100
   61DSPC   NC3  841   1.828  -0.278   2.254
   61DSPC   PO4  842   2.298  -0.200   2.253
   61DSPC   GL1  843   2.579   0.072   2.087
   61DSPC   GL2  844   2.474   0.223   1.839
   61DSPC   C1A  845   2.993  -0.208   1.922
   61DSPC   C2A  846   3.324  -0.222   1.504
   61DSPC   C3A  847   3.399  -0.456   1.162
   61DSPC   C4A  848   3.259  -0.275   0.715
   61DSPC   C5A  849   3.137  -0.087   0.418
   61DSPC   C1B  850   2.582   0.407   1.445
   61DSPC   C2B  851   2.768   0.538   0.999
   61DSPC   C3B  852   3.022   0.821   0.696
   61DSPC   C4B  853   2.939   0.842   0.276
   61DSPC   C5B  854   2.868   1.123  -0.158
   62DSPC   NC3  855   5.462   4.271   3.478
   62DSPC   PO4  856   5.318   3.999   3.113
   62DSPC   GL1  857   5.138   4.042   2.731
   62DSPC   GL2  858   4.986   4.309   2.694
   62DSPC   C1A  859   4.777   3.662   2.682
   62DSPC   C2A  860   4.280   3.605   2.496
   62DSPC   C3A  861   3.887   3.557   2.639
   62DSPC   C4A  862   3.575   3.949   2.611
   62DSPC   C5A  863   3.394   4.270   2.559
   62DSPC   C1B  864   4.637   4.511   2.501
   62DSPC   C2B  865   4.201   4.652   2.299
   62DSPC   C3B  866   3.908   4.778   1.932
   62DSPC   C4B  867   3.561   5.023   1.987
   62DSPC   C5B  868   3.261   5.423   1.838
   63DSPC   NC3  869   0.513   0.324   6.017
   63DSPC   PO4  870   0.524   0.488   5.569
   63DSPC   GL1  871   0.792   0.510   5.240
   63DSPC   GL2  872   1.089   0.480   5.319
   63DSPC   C1A  873   0.746   0.989   5.028
   63DSPC   C2A  874   1.062   1.370   4.829
   63DSPC   C3A  875   1.212   1.749   4.933
   63DSPC   C4A  876   1.694   1.784   5.072
   63DSPC   C5A  877   2.052   1.746   5.161
   63DSPC   C1B  878   1.509   0.602   5.228
   63DSPC   C2B  879   1.940   0.824   5.100
   63DSPC   C3B  880   2.330   0.896   4.819
   63DSPC   C4B  881   2.696   1.059   4.970
   63DSPC   C5B  882   3.217   1.048   5.003
   64DSPC   NC3  883   2.240   3.671   3.462
   64DSPC   PO4  884   1.783   3.754   3.569
   64DSPC   GL1  885   1.545   3.864   3.903
   64DSPC   GL2  886   1.681   3.811   4.176
   64DSPC   C1A  887   1.111   3.567   3.896
   64DSPC   C2A  888   0.805   3.299   4.241
   64DSPC   C3A  889   0.723   2.903   4.357
   64DSPC   C4A  890   0.909   2.739   4.795
   64DSPC   C5A  891   1.067   2.680   5.125
   64DSPC   C1B  892   1.617   3.697   4.603
   64DSPC   C2B  893   1.474   3.514   5.047
   64DSPC   C3B  894   1.272   3.542   5.488
   64DSPC   C4B  895   1.380   3.279   5.808
   64DSPC   C5B  896   1.508   3.203   6.309
   65DSPC   NC3  897  -0.064   1.321   1.376
   65DSPC   PO4  898   0.311   1.073   1.536
   65DSPC   GL1  899   0.656   1.132   1.777
   65DSPC   GL2  900   0.739   1.428   1.805
   65DSPC   C1A  901   1.058   0.889   1.540
   65DSPC   C2A  902   1.574   0.979   1.438
   65DSPC   C3A  903   1.824   1.080   1.115
   65DSPC   C4A  904   2.005   1.548   1.091
   65DSPC   C5A  905   2.109   1.902   1.131
   65DSPC   C1B  906   1.082   1.712   1.850
   65DSPC   C2B  907   1.513   1.966   1.843
   65DSPC   C3B  908   1.923   2.140   2.039
   65DSPC   C4B  909   2.119   2.491   1.890
   65DSPC   C5B  910   2.354   2.949   1.976
   66DSPC   NC3  911   6.263   6.357   3.696
   66DSPC   PO4  912   6.138   6.245   4.143
   66DSPC   GL1  913   6.313   6.082   4.495
   66DSPC   GL2  914   6.571   5.920   4.442
   66DSPC   C1A  915   5.968   5.743   4.701
   66DSPC   C2A  916   5.970   5.260   4.927
   66DSPC   C3A  917   5.864   4.863   4.837
   66DSPC   C4A  918   6.231   4.534   4.742
   66DSPC   C5A  919   6.544   4.341   4.686
   66DSPC   C1B  920   6.821   5.573   4.571
   66DSPC   C2B  921   7.015   5.142   4.737
   66DSPC   C3B  922   7.257   4.862   5.052
   66DSPC   C4B  923   7.457   4.502   4.935
   66DSPC   C5B  924   7.877   4.192   4.949
   67DSPC   NC3  925   4.760   4.185   0.226
   67DSPC   PO4  926   4.614   4.333   0.656
   67DSPC   GL1  927   4.676   4.240   1.066
   67DSPC   GL2  928   4.787   3.956   1.114
   67DSPC   C1A  929   4.207   4.255   1.305
   67DSPC   C2A  930   3.936   3.975   1.669
   67DSPC   C3A  931   3.614   3.706   1.692
   67DSPC   C4A  932   3.714   3.220   1.772
   67DSPC   C5A  933   3.851   2.881   1.837
   67DSPC   C1B  934   4.792   3.603   1.389
   67DSPC   C2B  935   4.703   3.232   1.714
   67DSPC   C3B  936   4.750   3.002   2.139
   67DSPC   C4B  937   4.696   2.579   2.179
   67DSPC   C5B  938   4.853   2.117   2.365
   68DSPC   NC3  939  -0.401   5.487   2.745
   68DSPC   PO4  940  -0.133   5.728   2.432
   68DSPC   GL1  941   0.200   5.661   2.177
   68DSPC   GL2  942   0.373   5.418   2.257
   68DSPC   C1A  943   0.516   6.081   2.215
   68DSPC   C2A  944   1.037   6.187   2.249
   68DSPC   C3A  945   1.322   6.310   2.533
   68DSPC   C4A  946   1.645   5.969   2.711
   68DSPC   C5A  947   1.854   5.675   2.800
   68DSPC   C1B  948   0.785   5.246   2.269
   68DSPC   C2B  949   1.275   5.146   2.299
   68DSPC   C3B  950   1.708   5.019   2.119
   68DSPC   C4B  951   2.013   4.837   2.359
   68DSPC   C5B  952   2.378   4.469   2.426
   69DSPC   NC3  953   3.412   2.264   4.811
   69DSPC   PO4  954   3.725   1.906   4.839
   69DSPC   GL1  955   3.780   1.543   5.053
   69DSPC   GL2  956   3.619   1.527   5.316
   69DSPC   C1A  957   4.287   1.514   5.191
   69DSPC   C2A  958   4.577   1.371   5.615
   69DSPC   C3A  959   4.804   1.546   5.924
   69DSPC   C4A  960   4.609   1.556   6.386
   69DSPC   C5A  961   4.414   1.529   6.702
   69DSPC   C1B  962   3.610   1.370   5.734
   69DSPC   C2B  963   3.698   1.211   6.201
   69DSPC   C3B  964   3.733   0.874   6.550
   69DSPC   C4B  965   3.682   0.966   6.965
   69DSPC   C5B  966   3.476   0.854   7.432
   70DSPC   NC3  967   0.865  -0.400   0.645
   70DSPC   PO4  968   1.062   0.018   0.760
   70DSPC   GL1  969   0.998   0.340   1.030
   70DSPC   GL2  970   0.709   0.357   1.138
   70DSPC   C1A  971   1.081   0.788   0.766
   70DSPC   C2A  972   0.861   1.272   0.723
   70DSPC   C3A  973   0.629   1.497   0.453
   70DSPC   C4A  974   0.145   1.572   0.561
   70DSPC   C5A  975  -0.200   1.596   0.697
   70DSPC   C1B  976   0.382   0.629   1.276
   70DSPC   C2B  977   0.051   0.995   1.362
   70DSPC   C3B  978  -0.147   1.355   1.621
   70DSPC   C4B  979  -0.558   1.471   1.580
   70DSPC   C5B  980  -1.016   1.600   1.794
   71DSPC   NC3  981   1.341   5.145   6.959
   71DSPC   PO4  982   1.164   5.387   6.588
   71DSPC   GL1  983   1.300   5.645   6.278
   71DSPC   GL2  984   1.571   5.780   6.337
   71DSPC   C1A  985   0.950   6.036   6.233
   71DSPC   C2A  986   0.949   6.564   6.161
   71DSPC   C3A  987   0.880   6.918   6.378
   71DSPC   C4A  988   1.275   7.197   6.511
   71DSPC   C5A  989   1.603   7.360   6.575
   71DSPC   C1B  990   1.821   6.146   6.281
   71DSPC   C2B  991   2.016   6.604   6.223
   71DSPC   C3B  992   2.229   6.961   5.972
   71DSPC   C4B  993   2.464   7.266   6.159
   71DSPC   C5B  994   2.895   7.561   6.175
   72DSPC   NC3  995   2.290   1.622   2.409
   72DSPC   PO4  996   2.265   2.095   2.467
   72DSPC   GL1  997   2.012   2.419   2.357
   72DSPC   GL2  998   1.831   2.360   2.114
   72DSPC   C1A  999   2.322   2.820   2.213
   72DSPC   C2A 1000   2.339   3.194   1.834
   72DSPC   C3A 1001   2.551   3.285   1.482
   72DSPC   C4A 1002   2.321   3.217   1.040
   72DSPC   C5A 1003   2.098   3.151   0.751
   72DSPC   C1B 1004   1.630   2.531   1.754
   72DSPC   C2B 1005   1.484   2.780   1.344
   72DSPC   C3B 1006   1.208   3.095   1.098
   72DSPC   C4B 1007   1.144   3.065   0.675
   72DSPC   C5B 1008   0.823   3.074   0.264
   73DSPC   NC3 1009   4.602   7.454   5.686
   73DSPC   PO4 1010   4.539   7.166   6.062
   73DSPC   GL1 1011   4.593   7.171   6.483
   73DSPC   GL2 1012   4.793   7.385   6.581
   73DSPC   C1A 1013   4.796   6.706   6.623
   73DSPC   C2A 1014   5.170   6.517   6.953
   73DSPC   C3A 1015   5.557   6.354   6.940
   73DSPC   C4A 1016   5.942   6.642   7.087
   73DSPC   C5A 1017   6.179   6.899   7.212
   73DSPC   C1B 1018   5.104   7.487   6.885
   73DSPC   C2B 1019   5.474   7.506   7.223
   73DSPC   C3B 1020   5.657   7.556   7.670
   73DSPC   C4B 1021   6.057   7.691   7.742
   73DSPC   C5B 1022   6.394   7.994   8.001
   74DSPC   NC3 1023   7.251   6.094   4.864
   74DSPC   PO4 1024   7.386   5.763   4.548
   74DSPC   GL1 1025   7.210   5.488   4.276
   74DSPC   GL2 1026   6.916   5.420   4.340
   74DSPC   C1A 1027   7.476   5.035   4.314
   74DSPC   C2A 1028   7.373   4.512   4.328
   74DSPC   C3A 1029   7.365   4.194   4.603
   74DSPC   C4A 1030   6.918   4.022   4.755
   74DSPC   C5A 1031   6.563   3.938   4.824
   74DSPC   C1B 1032   6.599   5.105   4.328
   74DSPC   C2B 1033   6.319   4.689   4.333
   74DSPC   C3B 1034   6.045   4.343   4.129
   74DSPC   C4B 1035   5.749   4.124   4.349
   74DSPC   C5B 1036   5.268   3.925   4.387
   75DSPC   NC3 1037   3.938   4.913   2.603
   75DSPC   PO4 1038   3.696   4.872   3.012
   75DSPC   GL1 1039   3.702   4.639   3.367
   75DSPC   GL2 1040   3.852   4.370   3.337
   75DSPC   C1A 1041   3.204   4.515   3.484
   75DSPC   C2A 1042   2.928   4.093   3.657
   75DSPC   C3A 1043   2.659   3.804   3.511
   75DSPC   C4A 1044   2.828   3.336   3.438
   75DSPC   C5A 1045   3.010   3.013   3.410
   75DSPC   C1B 1046   3.871   3.942   3.466
   75DSPC   C2B 1047   3.795   3.470   3.613
   75DSPC   C3B 1048   3.808   3.102   3.930
   75DSPC   C4B 1049   3.823   2.692   3.808
   75DSPC   C5B 1050   4.025   2.213   3.852
   76DSPC   NC3 1051  -0.831   5.939   1.873
   76DSPC   PO4 1052  -0.692   5.540   1.651
   76DSPC   GL1 1053  -0.341   5.375   1.478
   76DSPC   GL2 1054  -0.127   5.585   1.403
   76DSPC   C1A 1055  -0.481   5.143   1.026
   76DSPC   C2A 1056  -0.297   5.097   0.528
   76DSPC   C3A 1057  -0.379   5.241   0.141
   76DSPC   C4A 1058  -0.071   5.587  -0.054
   76DSPC   C5A 1059   0.192   5.834  -0.143
   76DSPC   C1B 1060   0.199   5.694   1.117
   76DSPC   C2B 1061   0.507   5.772   0.730
   76DSPC   C3B 1062   0.912   5.702   0.472
   76DSPC   C4B 1063   1.071   5.998   0.206
   76DSPC   C5B 1064   1.476   6.271   0.021
   77DSPC   NC3 1065   0.314   8.622   3.249
   77DSPC   PO4 1066   0.176   8.429   3.662
   77DSPC   GL1 1067   0.333   8.178   3.968
   77DSPC   GL2 1068   0.574   8.008   3.879
   77DSPC   C1A 1069  -0.045   7.836   4.101
   77DSPC   C2A 1070  -0.090   7.318   4.218
   77DSPC   C3A 1071  -0.233   6.962   4.046
   77DSPC   C4A 1072   0.103   6.628   3.877
   77DSPC   C5A 1073   0.396   6.423   3.777
   77DSPC   C1B 1074   0.789   7.619   3.927
   77DSPC   C2B 1075   0.940   7.146   3.993
   77DSPC   C3B 1076   1.153   6.784   4.237
   77DSPC   C4B 1077   1.319   6.440   4.043
   77DSPC   C5B 1078   1.707   6.096   3.984
   78DSPC   NC3 1079   2.287   4.182   1.643
   78DSPC   PO4 1080   1.862   4.062   1.463
   78DSPC   GL1 1081   1.663   4.051   1.087
   78DSPC   GL2 1082   1.789   4.236   0.874
   78DSPC   C1A 1083   1.174   4.230   1.161
   78DSPC   C2A 1084   0.824   4.549   0.916
   78DSPC   C3A 1085   0.658   4.934   0.954
   78DSPC   C4A 1086   0.812   5.292   0.637
   78DSPC   C5A 1087   0.962   5.509   0.375
   78DSPC   C1B 1088   1.712   4.497   0.519
   78DSPC   C2B 1089   1.542   4.811   0.169
   78DSPC   C3B 1090   1.361   4.924  -0.268
   78DSPC   C4B 1091   1.416   5.309  -0.448
   78DSPC   C5B 1092   1.535   5.603  -0.862
   79DSPC   NC3 1093   4.149   3.281   5.418
   79DSPC   PO4 1094   4.058   2.935   5.733
   79DSPC   GL1 1095   4.265   2.626   5.940
   79DSPC   GL2 1096   4.531   2.543   5.807
   79DSPC   C1A 1097   3.959   2.197   5.931
   79DSPC   C2A 1098   4.011   1.671   5.859
   79DSPC   C3A 1099   3.931   1.378   5.568
   79DSPC   C4A 1100   4.317   1.189   5.308
   79DSPC   C5A 1101   4.640   1.088   5.155
   79DSPC   C1B 1102   4.814   2.207   5.726
   79DSPC   C2B 1103   5.050   1.775   5.630
   79DSPC   C3B 1104   5.330   1.395   5.742
   79DSPC   C4B 1105   5.551   1.176   5.447
   79DSPC   C5B 1106   5.993   0.948   5.289
   80DSPC   NC3 1107   6.121   5.238  -1.130
   80DSPC   PO4 1108   6.464   5.370  -0.825
   80DSPC   GL1 1109   6.703   5.199  -0.517
   80DSPC   GL2 1110   6.585   4.941  -0.397
   80DSPC   C1A 1111   6.724   5.547  -0.122
   80DSPC   C2A 1112   6.702   5.547   0.410
   80DSPC   C3A 1113   6.436   5.651   0.720
   80DSPC   C4A 1114   6.205   5.281   0.970
   80DSPC   C5A 1115   6.071   4.967   1.117
   80DSPC   C1B 1116   6.543   4.692  -0.028
   80DSPC   C2B 1117   6.493   4.499   0.432
   80DSPC   C3B 1118   6.647   4.261   0.827
   80DSPC   C4B 1119   6.380   4.058   1.093
   80DSPC   C5B 1120   6.255   3.638   1.377
   81DSPC   NC3 1121   3.963   4.496   6.950
   81DSPC   PO4 1122   4.091   4.225   7.321
   81DSPC   GL1 1123   4.386   3.936   7.421
   81DSPC   GL2 1124   4.516   3.800   7.176
   81DSPC   C1A 1125   4.147   3.551   7.690
   81DSPC   C2A 1126   4.153   3.019   7.715
   81DSPC   C3A 1127   3.917   2.689   7.602
   81DSPC   C4A 1128   4.065   2.413   7.209
   81DSPC   C5A 1129   4.228   2.249   6.919
   81DSPC   C1B 1130   4.696   3.424   7.015
   81DSPC   C2B 1131   4.831   2.957   6.891
   81DSPC   C3B 1132   5.128   2.573   6.889
   81DSPC   C4B 1133   5.125   2.280   6.577
   81DSPC   C5B 1134   5.381   1.978   6.237
   82DSPC   NC3 1135   2.097   5.785   0.858
   82DSPC   PO4 1136   2.086   5.631   1.309
   82DSPC   GL1 1137   1.987   5.777   1.696
   82DSPC   GL2 1138   1.991   6.085   1.719
   82DSPC   C1A 1139   2.355   5.603   2.030
   82DSPC   C2A 1140   2.639   5.787   2.442
   82DSPC   C3A 1141   3.031   5.911   2.532
   82DSPC   C4A 1142   3.118   6.403   2.588
   82DSPC   C5A 1143   3.118   6.773   2.620
   82DSPC   C1B 1144   2.074   6.435   1.984
   82DSPC   C2B 1145   2.237   6.770   2.319
   82DSPC   C3B 1146   2.204   7.038   2.723
   82DSPC   C4B 1147   2.413   7.408   2.773
   82DSPC   C5B 1148   2.419   7.909   2.918
   83DSPC   NC3 1149   7.462   6.496   8.386
   83DSPC   PO4 1150   7.325   6.352   7.952
   83DSPC   GL1 1151   7.444   6.394   7.546
   83DSPC   GL2 1152   7.625   6.639   7.494
   83DSPC   C1A 1153   7.009   6.469   7.260
   83DSPC   C2A 1154   6.848   6.774   6.853
   83DSPC   C3A 1155   6.603   7.108   6.780
   83DSPC   C4A 1156   6.824   7.549   6.682
   83DSPC   C5A 1157   7.044   7.840   6.613
   83DSPC   C1B 1158   7.739   6.957   7.201
   83DSPC   C2B 1159   7.772   7.310   6.847
   83DSPC   C3B 1160   7.912   7.487   6.417
   83DSPC   C4B 1161   7.965   7.906   6.347
   83DSPC   C5B 1162   8.245   8.302   6.152
   84DSPC   NC3 1163   5.790   2.368   2.418
   84DSPC   PO4 1164   6.024   2.233   2.025
   84DSPC   GL1 1165   5.963   1.990   1.681
   84DSPC   GL2 1166   5.740   1.780   1.715
   84DSPC   C1A 1167   6.407   1.719   1.598
   84DSPC   C2A 1168   6.552   1.225   1.460
   84DSPC   C3A 1169   6.718   0.879   1.634
   84DSPC   C4A 1170   6.415   0.487   1.719
   84DSPC   C5A 1171   6.145   0.234   1.752
   84DSPC   C1B 1172   5.600   1.370   1.606
   84DSPC   C2B 1173   5.539   0.887   1.485
   84DSPC   C3B 1174   5.430   0.521   1.185
   84DSPC   C4B 1175   5.289   0.142   1.325
   84DSPC   C5B 1176   4.956  -0.259   1.292
   85DSPC   NC3 1177   8.100   5.254   5.401
   85DSPC   PO4 1178   7.786   5.306   5.757
   85DSPC   GL1 1179   7.415   5.499   5.832
   85DSPC   GL2 1180   7.354   5.733   5.640
   85DSPC   C1A 1181   7.442   5.711   6.314
   85DSPC   C2A 1182   7.301   6.163   6.559
   85DSPC   C3A 1183   7.476   6.514   6.712
   85DSPC   C4A 1184   7.419   6.941   6.454
   85DSPC   C5A 1185   7.338   7.221   6.223
   85DSPC   C1B 1186   7.161   6.133   5.595
   85DSPC   C2B 1187   6.974   6.596   5.638
   85DSPC   C3B 1188   6.615   6.922   5.673
   85DSPC   C4B 1189   6.661   7.330   5.550
   85DSPC   C5B 1190   6.482   7.751   5.299
   86DSPC   NC3 1191   1.618   4.151   3.567
   86DSPC   PO4 1192   1.729   3.747   3.340
   86DSPC   GL1 1193   1.822   3.342   3.430
   86DSPC   GL2 1194   1.919   3.298   3.720
   86DSPC   C1A 1195   2.222   3.198   3.120
   86DSPC   C2A 1196   2.675   2.919   3.157
   86DSPC   C3A 1197   3.091   2.983   3.171
   86DSPC   C4A 1198   3.326   2.927   3.612
   86DSPC   C5A 1199   3.440   2.867   3.960
   86DSPC   C1B 1200   2.186   3.060   3.988
   86DSPC   C2B 1201   2.547   2.792   4.210
   86DSPC   C3B 1202   2.738   2.387   4.399
   86DSPC   C4B 1203   3.045   2.395   4.698
   86DSPC   C5B 1204   3.243   2.224   5.150
   87DSPC   NC3 1205   3.501   5.759   4.745
   87DSPC   PO4 1206   3.271   5.350   4.831
   87DSPC   GL1 1207   3.106   5.138   5.160
   87DSPC   GL2 1208   3.221   5.223   5.434
   87DSPC   C1A 1209   3.233   4.630   5.101
   87DSPC   C2A 1210   3.399   4.223   5.402
   87DSPC   C3A 1211   3.749   4.001   5.478
   87DSPC   C4A 1212   3.994   4.081   5.909
   87DSPC   C5A 1213   4.125   4.181   6.242
   87DSPC   C1B 1214   3.332   5.088   5.845
   87DSPC   C2B 1215   3.481   4.853   6.262
   87DSPC   C3B 1216   3.413   4.636   6.691
   87DSPC   C4B 1217   3.716   4.619   6.993
   87DSPC   C5B 1218   3.863   4.670   7.491
   88DSPC   NC3 1219   1.397   1.765   5.941
   88DSPC   PO4 1220   1.423   1.763   6.417
   88DSPC   GL1 1221   1.570   2.007   6.732
   88DSPC   GL2 1222   1.786   2.210   6.643
   88DSPC   C1A 1223   1.804   1.691   7.082
   88DSPC   C2A 1224   2.244   1.686   7.383
   88DSPC   C3A 1225   2.621   1.498   7.398
   88DSPC   C4A 1226   3.026   1.765   7.268
   88DSPC   C5A 1227   3.283   2.013   7.167
   88DSPC   C1B 1228   2.156   2.430   6.760
   88DSPC   C2B 1229   2.593   2.595   6.943
   88DSPC   C3B 1230   2.872   2.875   7.226
   88DSPC   C4B 1231   3.277   2.973   7.127
   88DSPC   C5B 1232   3.660   3.324   7.084
   89DSPC   NC3 1233   6.163   6.379   3.508
   89DSPC   PO4 1234   6.439   6.052   3.297
   89DSPC   GL1 1235   6.471   5.630   3.266
   89DSPC   GL2 1236   6.330   5.476   3.493
   89DSPC   C1A 1237   6.982   5.506   3.303
   89DSPC   C2A 1238   7.287   5.137   3.539
   89DSPC   C3A 1239   7.553   5.100   3.863
   89DSPC   C4A 1240   7.396   4.858   4.274
   89DSPC   C5A 1241   7.224   4.668   4.543
   89DSPC   C1B 1242   6.337   5.113   3.754
   89DSPC   C2B 1243   6.442   4.716   4.041
   89DSPC   C3B 1244   6.469   4.241   4.139
   89DSPC   C4B 1245   6.459   4.087   4.538
   89DSPC   C5B 1246   6.279   3.743   4.887
   90DSPC   NC3 1247   4.126   5.251   6.081
   90DSPC   PO4 1248   3.821   5.603   6.185
   90DSPC   GL1 1249   3.827   5.994   6.351
   90DSPC   GL2 1250   4.076   6.053   6.524
   90DSPC   C1A 1251   3.414   6.033   6.676
   90DSPC   C2A 1252   3.302   6.235   7.156
   90DSPC   C3A 1253   3.229   6.105   7.550
   90DSPC   C4A 1254   3.589   6.170   7.894
   90DSPC   C5A 1255   3.889   6.248   8.099
   90DSPC   C1B 1256   4.235   6.272   6.879
   90DSPC   C2B 1257   4.325   6.499   7.316
   90DSPC   C3B 1258   4.402   6.885   7.602
   90DSPC   C4B 1259   4.619   6.859   7.971
   90DSPC   C5B 1260   4.982   7.045   8.297
   91DSPC   NC3 1261   6.471   0.752   8.135
   91DSPC   PO4 1262   6.742   0.728   7.743
   91DSPC   GL1 1263   6.957   0.987   7.483
   91DSPC   GL2 1264   6.863   1.281   7.495
   91DSPC   C1A 1265   6.869   0.826   6.990
   91DSPC   C2A 1266   6.769   1.041   6.512
   91DSPC   C3A 1267   6.449   1.091   6.243
   91DSPC   C4A 1268   6.241   1.547   6.202
   91DSPC   C5A 1269   6.135   1.902   6.215
   91DSPC   C1B 1270   6.804   1.659   7.264
   91DSPC   C2B 1271   6.717   2.023   6.930
   91DSPC   C3B 1272   6.846   2.386   6.635
   91DSPC   C4B 1273   6.575   2.699   6.522
   91DSPC   C5B 1274   6.474   3.206   6.449
   92DSPC   NC3 1275   1.095   1.146   1.811
   92DSPC   PO4 1276   1.174   0.923   2.224
   92DSPC   GL1 1277   1.487   0.870   2.506
   92DSPC   GL2 1278   1.769   0.925   2.392
   92DSPC   C1A 1279   1.486   0.364   2.652
   92DSPC   C2A 1280   1.839  -0.024   2.749
   92DSPC   C3A 1281   1.985  -0.377   2.571
   92DSPC   C4A 1282   2.442  -0.369   2.364
   92DSPC   C5A 1283   2.783  -0.300   2.234
   92DSPC   C1B 1284   2.202   0.813   2.407
   92DSPC   C2B 1285   2.652   0.597   2.441
   92DSPC   C3B 1286   3.080   0.507   2.653
   92DSPC   C4B 1287   3.426   0.385   2.431
   92DSPC   C5B 1288   3.936   0.427   2.329
   93DSPC   NC3 1289   1.469   6.330   0.947
   93DSPC   PO4 1290   1.348   5.881   1.052
   93DSPC   GL1 1291   1.042   5.670   1.258
   93DSPC   GL2 1292   0.887   5.843   1.462
   93DSPC   C1A 1293   1.272   5.288   1.537
   93DSPC   C2A 1294   1.231   5.068   2.021
   93DSPC   C3A 1295   1.436   5.060   2.389
   93DSPC   C4A 1296   1.244   5.318   2.775
   93DSPC   C5A 1297   1.051   5.521   3.018
   93DSPC   C1B 1298   0.671   5.847   1.853
   93DSPC   C2B 1299   0.497   5.785   2.319
   93DSPC   C3B 1300   0.175   5.634   2.650
   93DSPC   C4B 1301   0.137   5.817   3.035
   93DSPC   C5B 1302  -0.161   6.012   3.417
   94DSPC   NC3 1303   2.159   4.939   3.768
   94DSPC   PO4 1304   2.224   4.843   4.231
   94DSPC   GL1 1305   2.542   4.761   4.500
   94DSPC   GL2 1306   2.800   4.661   4.363
   94DSPC   C1A 1307   2.385   4.369   4.816
   94DSPC   C2A 1308   2.586   3.924   5.029
   94DSPC   C3A 1309   2.562   3.506   4.983
   94DSPC   C4A 1310   2.948   3.268   4.768
   94DSPC   C5A 1311   3.262   3.151   4.608
   94DSPC   C1B 1312   3.159   4.397   4.399
   94DSPC   C2B 1313   3.501   4.042   4.489
   94DSPC   C3B 1314   3.898   3.860   4.702
   94DSPC   C4B 1315   4.132   3.549   4.524
   94DSPC   C5B 1316   4.597   3.351   4.393
   95DSPC   NC3 1317   7.047   1.818   4.308
   95DSPC   PO4 1318   6.861   1.559   3.954
   95DSPC   GL1 1319   6.488   1.504   3.756
   95DSPC   GL2 1320   6.244   1.596   3.922
   95DSPC   C1A 1321   6.424   0.987   3.679
   95DSPC   C2A 1322   6.034   0.624   3.712
   95DSPC   C3A 1323   5.911   0.307   3.960
   95DSPC   C4A 1324   5.515   0.379   4.260
   95DSPC   C5A 1325   5.218   0.492   4.453
   95DSPC   C1B 1326   5.814   1.523   4.017
   95DSPC   C2B 1327   5.354   1.346   4.111
   95DSPC   C3B 1328   4.885   1.272   4.012
   95DSPC   C4B 1329   4.592   1.207   4.317
   95DSPC   C5B 1330   4.122   1.305   4.523
   96DSPC   NC3 1331   0.787   6.292   2.545
   96DSPC   PO4 1332   0.998   6.406   2.957
   96DSPC   GL1 1333   1.093   6.752   3.185
   96DSPC   GL2 1334   1.100   7.013   3.019
   96DSPC   C1A 1335   1.581   6.689   3.374
   96DSPC   C2A 1336   2.023   6.979   3.443
   96DSPC   C3A 1337   2.407   7.024   3.276
   96DSPC   C4A 1338   2.498   7.428   2.993
   96DSPC   C5A 1339   2.503   7.745   2.799
   96DSPC   C1B 1340   1.291   7.414   2.968
   96DSPC   C2B 1341   1.587   7.817   2.943
   96DSPC   C3B 1342   1.745   8.254   3.085
   96DSPC   C4B 1343   1.943   8.525   2.820
   96DSPC   C5B 1344   2.006   9.007   2.627
   97DSPC   NC3 1345   4.277   1.864   1.783
   97DSPC   PO4 1346   4.463   2.153   1.452
   97DSPC   GL1 1347   4.823   2.200   1.232
   97DSPC   GL2 1348   5.068   2.063   1.362
   97DSPC   C1A 1349   4.935   2.715   1.220
   97DSPC   C2A 1350   5.362   3.031   1.268
   97DSPC   C3A 1351   5.535   3.296   1.544
   97DSPC   C4A 1352   5.943   3.145   1.796
   97DSPC   C5A 1353   6.240   2.979   1.945
   97DSPC   C1B 1354   5.509   2.081   1.428
   97DSPC   C2B 1355   5.990   2.199   1.504
   97DSPC   C3B 1356   6.457   2.242   1.375
   97DSPC   C4B 1357   6.776   2.236   1.659
   97DSPC   C5B 1358   7.247   2.065   1.808
   98DSPC   NC3 1359   5.195   2.757   6.681
   98DSPC   PO4 1360   5.462   3.013   6.982
   98DSPC   GL1 1361   5.671   3.384   6.992
   98DSPC   GL2 1362   5.737   3.497   6.712
   98DSPC   C1A 1363   6.134   3.300   7.228
   98DSPC   C2A 1364   6.644   3.442   7.168
   98DSPC   C3A 1365   7.010   3.279   7.039
   98DSPC   C4A 1366   7.188   3.418   6.591
   98DSPC   C5A 1367   7.268   3.561   6.257
   98DSPC   C1B 1368   6.029   3.732   6.469
   98DSPC   C2B 1369   6.425   3.954   6.255
   98DSPC   C3B 1370   6.711   4.332   6.150
   98DSPC   C4B 1371   6.956   4.345   5.799
   98DSPC   C5B 1372   7.136   4.602   5.382
   99DSPC   NC3 1373   3.763   4.524   5.520
   99DSPC   PO4 1374   3.762   4.918   5.251
   99DSPC   GL1 1375   3.748   5.340   5.299
   99DSPC   GL2 1376   3.635   5.432   5.572
   99DSPC   C1A 1377   3.420   5.531   4.934
   99DSPC   C2A 1378   3.034   5.897   4.897
   99DSPC   C3A 1379   2.615   5.920   4.868
   99DSPC   C4A 1380   2.356   6.066   5.274
   99DSPC   C5A 1381   2.224   6.182   5.601
   99DSPC   C1B 1382   3.400   5.744   5.787
   99DSPC   C2B 1383   3.084   6.100   5.945
   99DSPC   C3B 1384   2.965   6.552   6.080
   99DSPC   C4B 1385   2.636   6.635   6.341
   99DSPC   C5B 1386   2.436   6.888   6.752
  100DSPC   NC3 1387   5.568   3.582   4.867
  100DSPC   PO4 1388   5.175   3.352   4.723
  100DSPC   GL1 1389   4.881   3.379   4.418
  100DSPC   GL2 1390   4.859   3.659   4.289
  100DSPC   C1A 1391   4.413   3.285   4.639
  100DSPC   C2A 1392   3.915   3.475   4.617
  100DSPC   C3A 1393   3.650   3.708   4.846
  100DSPC   C4A 1394   3.560   4.180   4.699
  100DSPC   C5A 1395   3.532   4.514   4.538
  100DSPC   C1B 1396   4.586   3.959   4.102
  100DSPC   C2B 1397   4.213   4.261   3.957
  100DSPC   C3B 1398   3.872   4.419   3.649
  100DSPC   C4B 1399   3.729   4.823   3.650
  100DSPC   C5B 1400   3.598   5.258   3.393
  101DSPC   NC3 1401   0.233   6.067   5.917
  101DSPC   PO4 1402   0.129   6.527   5.849
  101DSPC   GL1 1403   0.324   6.905   5.851
  101DSPC   GL2 1404   0.590   6.907   6.008
  101DSPC   C1A 1405   0.007   7.246   6.097
  101DSPC   C2A 1406   0.047   7.643   6.450
  101DSPC   C3A 1407  -0.036   7.722   6.856
  101DSPC   C4A 1408   0.349   7.745   7.178
  101DSPC   C5A 1409   0.671   7.753   7.362
  101DSPC   C1B 1410   0.866   7.149   6.264
  101DSPC   C2B 1411   1.091   7.460   6.585
  101DSPC   C3B 1412   1.360   7.847   6.705
  101DSPC   C4B 1413   1.579   7.871   7.072
  101DSPC   C5B 1414   2.018   7.984   7.332
  102DSPC   NC3 1415   7.104  -0.666   3.831
  102DSPC   PO4 1416   6.888  -0.526   4.232
  102DSPC   GL1 1417   6.496  -0.440   4.372
  102DSPC   GL2 1418   6.294  -0.376   4.148
  102DSPC   C1A 1419   6.526  -0.005   4.668
  102DSPC   C2A 1420   6.249   0.443   4.747
  102DSPC   C3A 1421   6.270   0.854   4.658
  102DSPC   C4A 1422   5.967   1.037   4.301
  102DSPC   C5A 1423   5.718   1.111   4.036
  102DSPC   C1B 1424   5.933  -0.139   4.033
  102DSPC   C2B 1425   5.567   0.196   3.962
  102DSPC   C3B 1426   5.115   0.369   4.011
  102DSPC   C4B 1427   4.940   0.639   3.729
  102DSPC   C5B 1428   4.536   0.785   3.432
  103DSPC   NC3 1429   3.218   1.575   2.066
  103DSPC   PO4 1430   3.033   1.138   2.019
  103DSPC   GL1 1431   3.132   0.735   2.113
  103DSPC   GL2 1432   3.434   0.688   2.159
  103DSPC   C1A 1433   3.001   0.439   1.698
  103DSPC   C2A 1434   3.202   0.030   1.420
  103DSPC   C3A 1435   3.385  -0.047   1.049
  103DSPC   C4A 1436   3.879  -0.137   1.042
  103DSPC   C5A 1437   4.240  -0.200   1.103
  103DSPC   C1B 1438   3.773   0.399   2.118
  103DSPC   C2B 1439   4.106   0.048   1.989
  103DSPC   C3B 1440   4.335  -0.378   2.038
  103DSPC   C4B 1441   4.731  -0.445   1.891
  103DSPC   C5B 1442   5.214  -0.631   1.959
  104DSPC   NC3 1443   1.539   6.281   7.719
  104DSPC   PO4 1444   1.894   6.193   7.414
  104DSPC   GL1 1445   1.986   5.926   7.096
  104DSPC   GL2 1446   1.818   5.667   7.098
  104DSPC   C1A 1447   2.487   5.774   7.156
  104DSPC   C2A 1448   2.775   5.327   7.115
  104DSPC   C3A 1449   2.965   5.044   7.362
  104DSPC   C4A 1450   2.752   4.592   7.414
  104DSPC   C5A 1451   2.550   4.281   7.409
  104DSPC   C1B 1452   1.812   5.230   7.005
  104DSPC   C2B 1453   1.900   4.742   6.929
  104DSPC   C3B 1454   1.965   4.346   6.655
  104DSPC   C4B 1455   1.885   3.951   6.798
  104DSPC   C5B 1456   1.677   3.477   6.730
  105DSPC   NC3 1457   4.079   6.147   1.837
  105DSPC   PO4 1458   3.891   6.330   1.438
  105DSPC   GL1 1459   3.516   6.352   1.239
  105DSPC   GL2 1460   3.316   6.134   1.327
  105DSPC   C1A 1461   3.604   6.270   0.726
  105DSPC   C2A 1462   3.381   6.005   0.321
  105DSPC   C3A 1463   3.446   5.660   0.089
  105DSPC   C4A 1464   3.155   5.259   0.171
  105DSPC   C5A 1465   2.908   5.002   0.275
  105DSPC   C1B 1466   2.980   5.868   1.199
  105DSPC   C2B 1467   2.652   5.567   0.969
  105DSPC   C3B 1468   2.225   5.459   0.765
  105DSPC   C4B 1469   2.072   5.059   0.746
  105DSPC   C5B 1470   1.679   4.721   0.803
  106DSPC   NC3 1471   3.758   1.618   2.982
  106DSPC   PO4 1472   3.530   1.672   2.566
  106DSPC   GL1 1473   3.530   1.932   2.231
  106DSPC   GL2 1474   3.655   2.209   2.287
  106DSPC   C1A 1475   3.028   2.024   2.101
  106DSPC   C2A 1476   2.724   2.435   1.949
  106DSPC   C3A 1477   2.426   2.689   2.103
  106DSPC   C4A 1478   2.552   3.161   2.219
  106DSPC   C5A 1479   2.705   3.494   2.279
  106DSPC   C1B 1480   3.643   2.645   2.193
  106DSPC   C2B 1481   3.533   3.121   2.078
  106DSPC   C3B 1482   3.527   3.512   1.791
  106DSPC   C4B 1483   3.503   3.911   1.944
  106DSPC   C5B 1484   3.666   4.407   1.945
  107DSPC   NC3 1485   2.381   3.862   2.895
  107DSPC   PO4 1486   2.536   4.312   2.882
  107DSPC   GL1 1487   2.421   4.688   2.718
  107DSPC   GL2 1488   2.225   4.666   2.481
  107DSPC   C1A 1489   2.855   4.917   2.527
  107DSPC   C2A 1490   3.002   5.197   2.097
  107DSPC   C3A 1491   3.223   5.148   1.743
  107DSPC   C4A 1492   2.973   5.108   1.309
  107DSPC   C5A 1493   2.733   5.088   1.026
  107DSPC   C1B 1494   2.093   4.845   2.093
  107DSPC   C2B 1495   2.041   5.067   1.647
  107DSPC   C3B 1496   1.897   5.423   1.349
  107DSPC   C4B 1497   1.816   5.357   0.934
  107DSPC   C5B 1498   1.511   5.425   0.515
  108DSPC   NC3 1499   7.172   3.625  -0.331
  108DSPC   PO4 1500   6.774   3.432  -0.509
  108DSPC   GL1 1501   6.367   3.375  -0.400
  108DSPC   GL2 1502   6.316   3.394  -0.096
  108DSPC   C1A 1503   6.232   2.886  -0.541
  108DSPC   C2A 1504   5.952   2.477  -0.343
  108DSPC   C3A 1505   6.016   2.098  -0.172
  108DSPC   C4A 1506   5.948   2.046   0.323
  108DSPC   C5A 1507   5.879   2.071   0.687
  108DSPC   C1B 1508   6.070   3.244   0.246
  108DSPC   C2B 1509   5.796   2.991   0.581
  108DSPC   C3B 1510   5.387   2.881   0.818
  108DSPC   C4B 1511   5.387   2.708   1.211
  108DSPC   C5B 1512   5.204   2.693   1.699
  109DSPC   NC3 1513   4.394   1.500   1.652
  109DSPC   PO4 1514   4.195   1.565   1.224
  109DSPC   GL1 1515   4.263   1.788   0.868
  109DSPC   GL2 1516   4.445   2.034   0.908
  109DSPC   C1A 1517   3.798   1.976   0.708
  109DSPC   C2A 1518   3.598   2.429   0.509
  109DSPC   C3A 1519   3.360   2.755   0.629
  109DSPC   C4A 1520   3.585   3.196   0.711
  109DSPC   C5A 1521   3.807   3.491   0.752
  109DSPC   C1B 1522   4.534   2.453   0.778
  109DSPC   C2B 1523   4.536   2.929   0.621
  109DSPC   C3B 1524   4.625   3.284   0.303
  109DSPC   C4B 1525   4.686   3.691   0.422
  109DSPC   C5B 1526   4.956   4.137   0.391
  110DSPC   NC3 1527   6.455   6.747   8.380
  110DSPC   PO4 1528   6.457   6.894   7.926
  110DSPC   GL1 1529   6.721   6.907   7.593
  110DSPC   GL2 1530   7.020   6.885   7.670
  110DSPC   C1A 1531   6.664   7.377   7.363
  110DSPC   C2A 1532   6.971   7.755   7.146
  110DSPC   C3A 1533   7.116   8.140   7.233
  110DSPC   C4A 1534   7.599   8.189   7.365
  110DSPC   C5A 1535   7.959   8.160   7.450
  110DSPC   C1B 1536   7.437   7.010   7.568
  110DSPC   C2B 1537   7.862   7.235   7.426
  110DSPC   C3B 1538   8.247   7.302   7.137
  110DSPC   C4B 1539   8.612   7.476   7.277
  110DSPC   C5B 1540   9.133   7.475   7.303
  111DSPC   NC3 1541   1.422   3.810   6.354
  111DSPC   PO4 1542   0.976   3.864   6.192
  111DSPC   GL1 1543   0.764   4.100   5.909
  111DSPC   GL2 1544   0.908   4.361   5.830
  111DSPC   C1A 1545   0.311   4.247   6.133
  111DSPC   C2A 1546   0.004   4.682   6.166
  111DSPC   C3A 1547  -0.098   4.982   6.442
  111DSPC   C4A 1548   0.096   5.441   6.379
  111DSPC   C5A 1549   0.267   5.755   6.277
  111DSPC   C1B 1550   0.858   4.788   5.708
  111DSPC   C2B 1551   0.724   5.265   5.632
  111DSPC   C3B 1552   0.546   5.634   5.370
  111DSPC   C4B 1553   0.652   6.042   5.445
  111DSPC   C5B 1554   0.798   6.511   5.271
  112DSPC   NC3 1555   6.899   6.227   4.824
  112DSPC   PO4 1556   7.024   5.816   5.031
  112DSPC   GL1 1557   6.975   5.398   4.971
  112DSPC   GL2 1558   6.736   5.325   4.790
  112DSPC   C1A 1559   6.873   5.181   5.440
  112DSPC   C2A 1560   6.550   4.811   5.647
  112DSPC   C3A 1561   6.204   4.784   5.884
  112DSPC   C4A 1562   5.770   4.665   5.661
  112DSPC   C5A 1563   5.486   4.571   5.441
  112DSPC   C1B 1564   6.414   5.027   4.706
  112DSPC   C2B 1565   6.051   4.680   4.710
  112DSPC   C3B 1566   5.867   4.239   4.628
  112DSPC   C4B 1567   5.448   4.171   4.568
  112DSPC   C5B 1568   5.059   3.947   4.302
  113DSPC   NC3 1569   1.990   5.361   3.469
  113DSPC   PO4 1570   2.042   5.834   3.507
  113DSPC   GL1 1571   1.803   6.185   3.504
  113DSPC   GL2 1572   1.527   6.147   3.370
  113DSPC   C1A 1573   2.056   6.547   3.217
  113DSPC   C2A 1574   1.941   6.916   2.850
  113DSPC   C3A 1575   1.982   6.981   2.436
  113DSPC   C4A 1576   1.574   6.940   2.146
  113DSPC   C5A 1577   1.240   6.900   1.989
  113DSPC   C1B 1578   1.206   6.340   3.127
  113DSPC   C2B 1579   0.920   6.604   2.811
  113DSPC   C3B 1580   0.597   6.949   2.696
  113DSPC   C4B 1581   0.349   6.926   2.348
  113DSPC   C5B 1582  -0.119   6.972   2.121
  114DSPC   NC3 1583   2.688  -1.047   4.218
  114DSPC   PO4 1584   3.010  -0.787   4.456
  114DSPC   GL1 1585   3.024  -0.449   4.712
  114DSPC   GL2 1586   2.775  -0.266   4.692
  114DSPC   C1A 1587   3.433  -0.153   4.563
  114DSPC   C2A 1588   3.549   0.363   4.494
  114DSPC   C3A 1589   3.609   0.639   4.182
  114DSPC   C4A 1590   3.247   0.975   4.088
  114DSPC   C5A 1591   2.950   1.196   4.071
  114DSPC   C1B 1592   2.623   0.154   4.715
  114DSPC   C2B 1593   2.539   0.647   4.700
  114DSPC   C3B 1594   2.479   1.088   4.897
  114DSPC   C4B 1595   2.256   1.398   4.704
  114DSPC   C5B 1596   1.899   1.779   4.723
  115DSPC   NC3 1597   3.694  -0.079   6.819
  115DSPC   PO4 1598   3.567   0.000   7.272
  115DSPC   GL1 1599   3.221  -0.026   7.518
  115DSPC   GL2 1600   2.955  -0.026   7.361
  115DSPC   C1A 1601   3.210   0.404   7.822
  115DSPC   C2A 1602   2.852   0.757   8.001
  115DSPC   C3A 1603   2.734   1.155   7.936
  115DSPC   C4A 1604   2.306   1.239   7.686
  115DSPC   C5A 1605   1.983   1.235   7.503
  115DSPC   C1B 1606   2.526   0.097   7.362
  115DSPC   C2B 1607   2.077   0.314   7.414
  115DSPC   C3B 1608   1.627   0.352   7.594
  115DSPC   C4B 1609   1.313   0.557   7.388
  115DSPC   C5B 1610   0.819   0.578   7.220
  116DSPC   NC3 1611   7.255   6.762   5.108
  116DSPC   PO4 1612   7.246   7.051   4.729
  116DSPC   GL1 1613   7.130   7.043   4.320
  116DSPC   GL2 1614   7.110   6.758   4.202
  116DSPC   C1A 1615   7.503   7.290   4.043
  116DSPC   C2A 1616   7.764   7.228   3.582
  116DSPC   C3A 1617   8.143   7.114   3.441
  116DSPC   C4A 1618   8.193   6.661   3.229
  116DSPC   C5A 1619   8.164   6.321   3.082
  116DSPC   C1B 1620   7.161   6.506   3.836
  116DSPC   C2B 1621   7.292   6.286   3.406
  116DSPC   C3B 1622   7.231   6.163   2.940
  116DSPC   C4B 1623   7.411   5.815   2.767
  116DSPC   C5B 1624   7.377   5.386   2.470
  117DSPC   NC3 1625   7.498   5.292   4.045
  117DSPC   PO4 1626   7.209   5.643   3.901
  117DSPC   GL1 1627   6.862   5.848   4.035
  117DSPC   GL2 1628   6.698   5.693   4.246
  117DSPC   C1A 1629   6.543   5.910   3.620
  117DSPC   C2A 1630   6.023   5.875   3.508
  117DSPC   C3A 1631   5.754   5.621   3.309
  117DSPC   C4A 1632   5.448   5.334   3.585
  117DSPC   C5A 1633   5.248   5.154   3.842
  117DSPC   C1B 1634   6.289   5.608   4.406
  117DSPC   C2B 1635   5.803   5.521   4.492
  117DSPC   C3B 1636   5.362   5.630   4.663
  117DSPC   C4B 1637   5.075   5.331   4.770
  117DSPC   C5B 1638   4.720   5.142   5.102
  118DSPC   NC3 1639   1.101   0.021   3.914
  118DSPC   PO4 1640   1.466   0.093   4.213
  118DSPC   GL1 1641   1.545   0.287   4.582
  118DSPC   GL2 1642   1.341   0.506   4.655
  118DSPC   C1A 1643   2.010   0.531   4.537
  118DSPC   C2A 1644   2.230   0.997   4.673
  118DSPC   C3A 1645   2.351   1.360   4.496
  118DSPC   C4A 1646   2.068   1.768   4.572
  118DSPC   C5A 1647   1.823   2.030   4.667
  118DSPC   C1B 1648   1.278   0.900   4.856
  118DSPC   C2B 1649   1.298   1.363   5.048
  118DSPC   C3B 1650   1.328   1.686   5.410
  118DSPC   C4B 1651   1.176   2.085   5.375
  118DSPC   C5B 1652   0.906   2.486   5.572
  119DSPC   NC3 1653   5.371   6.422   3.899
  119DSPC   PO4 1654   5.800   6.603   4.003
  119DSPC   GL1 1655   6.064   6.905   3.863
  119DSPC   GL2 1656   6.012   6.991   3.571
  119DSPC   C1A 1657   6.551   6.706   3.870
  119DSPC   C2A 1658   6.987   6.706   3.562
  119DSPC   C3A 1659   7.199   6.448   3.305
  119DSPC   C4A 1660   7.166   6.526   2.810
  119DSPC   C5A 1661   7.106   6.636   2.461
  119DSPC   C1B 1662   6.195   7.135   3.190
  119DSPC   C2B 1663   6.478   7.239   2.789
  119DSPC   C3B 1664   6.755   7.525   2.510
  119DSPC   C4B 1665   6.796   7.466   2.088
  119DSPC   C5B 1666   6.807   7.658   1.603
  120DSPC   NC3 1667   3.112   3.593   5.476
  120DSPC   PO4 1668   3.373   3.800   5.816
  120DSPC   GL1 1669   3.657   3.693   6.114
  120DSPC   GL2 1670   3.649   3.394   6.193
  120DSPC   C1A 1671   3.538   3.961   6.551
  120DSPC   C2A 1672   3.512   3.875   7.077
  120DSPC   C3A 1673   3.224   3.823   7.380
  120DSPC   C4A 1674   3.153   3.361   7.564
  120DSPC   C5A 1675   3.151   3.002   7.660
  120DSPC   C1B 1676   3.704   3.098   6.522
  120DSPC   C2B 1677   3.728   2.837   6.950
  120DSPC   C3B 1678   3.960   2.621   7.319
  120DSPC   C4B 1679   3.790   2.295   7.539
  120DSPC   C5B 1680   3.836   1.823   7.757
  121DSPC   NC3 1681   5.335   1.014   3.208
  121DSPC   PO4 1682   5.345   1.478   3.319
  121DSPC   GL1 1683   5.180   1.845   3.182
  121DSPC   GL2 1684   5.082   1.836   2.888
  121DSPC   C1A 1685   5.562   2.206   3.197
  121DSPC   C2A 1686   5.744   2.608   2.897
  121DSPC   C3A 1687   6.068   2.698   2.644
  121DSPC   C4A 1688   5.989   2.707   2.148
  121DSPC   C5A 1689   5.866   2.702   1.797
  121DSPC   C1B 1690   5.030   2.068   2.510
  121DSPC   C2B 1691   5.055   2.374   2.113
  121DSPC   C3B 1692   4.912   2.748   1.839
  121DSPC   C4B 1693   4.987   2.767   1.418
  121DSPC   C5B 1694   4.821   2.862   0.932
  122DSPC   NC3 1695   0.490   3.468   2.665
  122DSPC   PO4 1696   0.317   3.901   2.567
  122DSPC   GL1 1697   0.352   4.202   2.269
  122DSPC   GL2 1698   0.610   4.182   2.100
  122DSPC   C1A 1699   0.376   4.667   2.515
  122DSPC   C2A 1700   0.648   5.124   2.478
  122DSPC   C3A 1701   0.956   5.332   2.676
  122DSPC   C4A 1702   1.410   5.347   2.461
  122DSPC   C5A 1703   1.716   5.325   2.252
  122DSPC   C1B 1704   0.924   4.408   1.878
  122DSPC   C2B 1705   1.263   4.730   1.698
  122DSPC   C3B 1706   1.434   5.054   1.379
  122DSPC   C4B 1707   1.853   5.124   1.323
  122DSPC   C5B 1708   2.263   5.191   1.007
  123DSPC   NC3 1709   2.481   4.252   5.689
  123DSPC   PO4 1710   2.826   4.171   6.008
  123DSPC   GL1 1711   3.179   3.937   6.048
  123DSPC   GL2 1712   3.190   3.695   5.857
  123DSPC   C1A 1713   3.183   3.739   6.535
  123DSPC   C2A 1714   3.299   3.278   6.777
  123DSPC   C3A 1715   3.104   2.953   6.960
  123DSPC   C4A 1716   3.082   2.517   6.711
  123DSPC   C5A 1717   3.103   2.226   6.481
  123DSPC   C1B 1718   3.330   3.274   5.803
  123DSPC   C2B 1719   3.467   2.793   5.840
  123DSPC   C3B 1720   3.788   2.428   5.844
  123DSPC   C4B 1721   3.682   2.026   5.741
  123DSPC   C5B 1722   3.782   1.583   5.484
  124DSPC   NC3 1723   8.103   3.991   4.867
  124DSPC   PO4 1724   7.964   3.781   4.462
  124DSPC   GL1 1725   7.619   3.596   4.298
  124DSPC   GL2 1726   7.417   3.497   4.510
  124DSPC   C1A 1727   7.777   3.167   4.037
  124DSPC   C2A 1728   7.623   2.661   3.970
  124DSPC   C3A 1729   7.733   2.273   4.090
  124DSPC   C4A 1730   7.450   2.041   4.434
  124DSPC   C5A 1731   7.202   1.923   4.685
  124DSPC   C1B 1732   7.114   3.186   4.614
  124DSPC   C2B 1733   6.832   2.776   4.680
  124DSPC   C3B 1734   6.441   2.497   4.609
  124DSPC   C4B 1735   6.309   2.207   4.895
  124DSPC   C5B 1736   5.926   1.983   5.170
  125DSPC   NC3 1737   1.835   3.738   7.623
  125DSPC   PO4 1738   2.022   3.932   7.229
  125DSPC   GL1 1739   2.213   3.809   6.870
  125DSPC   GL2 1740   2.336   3.526   6.884
  125DSPC   C1A 1741   2.615   4.137   6.783
  125DSPC   C2A 1742   3.122   4.113   6.619
  125DSPC   C3A 1743   3.511   4.142   6.776
  125DSPC   C4A 1744   3.780   3.720   6.827
  125DSPC   C5A 1745   3.926   3.379   6.836
  125DSPC   C1B 1746   2.667   3.260   6.745
  125DSPC   C2B 1747   3.093   3.045   6.593
  125DSPC   C3B 1748   3.385   2.833   6.267
  125DSPC   C4B 1749   3.700   2.565   6.380
  125DSPC   C5B 1750   3.960   2.117   6.312
  126DSPC   NC3 1751   4.108   1.799   2.998
  126DSPC   PO4 1752   4.292   1.468   3.288
  126DSPC   GL1 1753   4.459   1.439   3.678
  126DSPC   GL2 1754   4.563   1.707   3.790
  126DSPC   C1A 1755   4.879   1.123   3.647
  126DSPC   C2A 1756   5.376   1.100   3.840
  126DSPC   C3A 1757   5.773   1.156   3.711
  126DSPC   C4A 1758   6.013   1.573   3.856
  126DSPC   C5A 1759   6.136   1.893   3.998
  126DSPC   C1B 1760   4.869   1.906   4.047
  126DSPC   C2B 1761   5.273   2.058   4.302
  126DSPC   C3B 1762   5.536   2.129   4.704
  126DSPC   C4B 1763   5.836   2.433   4.734
  126DSPC   C5B 1764   6.062   2.823   4.997
  127DSPC   NC3 1765   4.074   7.614   0.045
  127DSPC   PO4 1766   3.795   7.814   0.376
  127DSPC   GL1 1767   3.510   7.697   0.669
  127DSPC   GL2 1768   3.384   7.420   0.618
  127DSPC   C1A 1769   3.112   8.042   0.650
  127DSPC   C2A 1770   2.579   8.038   0.670
  127DSPC   C3A 1771   2.248   8.084   0.415
  127DSPC   C4A 1772   1.987   7.674   0.286
  127DSPC   C5A 1773   1.835   7.339   0.232
  127DSPC   C1B 1774   3.017   7.168   0.658
  127DSPC   C2B 1775   2.558   6.969   0.686
  127DSPC   C3B 1776   2.181   6.768   0.917
  127DSPC   C4B 1777   1.898   6.514   0.720
  127DSPC   C5B 1778   1.612   6.078   0.708
  128DSPC   NC3 1779   3.131   8.205   7.255
  128DSPC   PO4 1780   3.557   8.048   7.107
  128DSPC   GL1 1781   3.732   7.871   6.763
  128DSPC   GL2 1782   3.529   7.733   6.576
  128DSPC   C1A 1783   4.058   7.491   6.929
  128DSPC   C2A 1784   4.191   6.993   6.794
  128DSPC   C3A 1785   4.132   6.598   6.927
  128DSPC   C4A 1786   3.814   6.305   6.670
  128DSPC   C5A 1787   3.574   6.141   6.440
  128DSPC   C1B 1788   3.459   7.395   6.292
  128DSPC   C2B 1789   3.442   6.967   6.032
  128DSPC   C3B 1790   3.538   6.681   5.651
  128DSPC   C4B 1791   3.291   6.347   5.545
  128DSPC   C5B 1792   3.037   6.068   5.185
   7.50000   7.50000   7.50000
