SINGLE DSPC MOLECULE
 1792
    1DSPC   NC3    1   7.264   1.193   1.309
    1DSPC   PO4    2   7.387   1.091   1.759
    1DSPC   GL1    3   7.242   0.866   2.088
    1DSPC   GL2    4   6.940   0.803   2.074
    1DSPC   C1A    5   7.308   1.157   2.522
    1DSPC   C2A    6   7.039   1.277   2.967
    1DSPC   C3A    7   6.826   1.598   3.136
    1DSPC   C4A    8   6.325   1.569   3.152
    1DSPC   C5A    9   5.963   1.487   3.138
    1DSPC   C1B   10   6.564   0.740   2.307
    1DSPC   C2B   11   6.180   0.738   2.630
    1DSPC   C3B   12   5.901   0.546   2.977
    1DSPC   C4B   13   5.491   0.657   3.032
    1DSPC   C5B   14   4.992   0.524   3.113
    2DSPC   NC3   15   3.917   3.610   4.827
    2DSPC   PO4   16   3.690   3.912   5.118
    2DSPC   GL1   17   3.390   4.213   5.098
    2DSPC   GL2   18   3.350   4.331   4.816
    2DSPC   C1A   19   3.548   4.614   5.401
    2DSPC   C2A   20   3.556   5.147   5.385
    2DSPC   C3A   21   3.829   5.462   5.329
    2DSPC   C4A   22   3.823   5.708   4.891
    2DSPC   C5A   23   3.767   5.851   4.553
    2DSPC   C1B   24   3.245   4.695   4.579
    2DSPC   C2B   25   3.175   5.152   4.386
    2DSPC   C3B   26   2.910   5.540   4.263
    2DSPC   C4B   27   3.023   5.806   3.947
    2DSPC   C5B   28   2.899   6.084   3.523
    3DSPC   NC3   29   6.614   2.440   3.043
    3DSPC   PO4   30   6.675   1.990   2.898
    3DSPC   GL1   31   6.773   1.777   2.544
    3DSPC   GL2   32   6.725   1.936   2.284
    3DSPC   C1A   33   6.456   1.357   2.518
    3DSPC   C2A   34   6.174   1.093   2.151
    3DSPC   C3A   35   5.773   1.039   2.031
    3DSPC   C4A   36   5.617   1.267   1.612
    3DSPC   C5A   37   5.564   1.456   1.297
    3DSPC   C1B   38   6.607   1.914   1.854
    3DSPC   C2B   39   6.415   1.816   1.401
    3DSPC   C3B   40   6.432   1.651   0.945
    3DSPC   C4B   41   6.173   1.797   0.637
    3DSPC   C5B   42   6.101   1.969   0.149
    4DSPC   NC3   43   6.484   1.423   5.423
    4DSPC   PO4   44   6.580   1.212   5.006
    4DSPC   GL1   45   6.376   1.080   4.658
    4DSPC   GL2   46   6.073   1.034   4.700
    4DSPC   C1A   47   6.576   0.611   4.525
    4DSPC   C2A   48   6.402   0.137   4.353
    4DSPC   C3A   49   6.343  -0.254   4.495
    4DSPC   C4A   50   5.873  -0.406   4.587
    4DSPC   C5A   51   5.508  -0.460   4.631
    4DSPC   C1B   52   5.717   0.790   4.584
    4DSPC   C2B   53   5.382   0.443   4.447
    4DSPC   C3B   54   5.069   0.234   4.140
    4DSPC   C4B   55   4.741  -0.006   4.274
    4DSPC   C5B   56   4.236  -0.137   4.250
    5DSPC   NC3   57   0.118   4.125   4.481
    5DSPC   PO4   58   0.353   4.094   4.895
    5DSPC   GL1   59   0.485   4.347   5.210
    5DSPC   GL2   60   0.507   4.644   5.131
    5DSPC   C1A   61   0.972   4.196   5.341
    5DSPC   C2A   62   1.439   4.421   5.467
    5DSPC   C3A   63   1.819   4.489   5.299
    5DSPC   C4A   64   1.932   4.954   5.146
    5DSPC   C5A   65   1.956   5.313   5.057
    5DSPC   C1B   66   0.728   5.028   5.192
    5DSPC   C2B   67   1.055   5.399   5.272
    5DSPC   C3B   68   1.254   5.760   5.529
    5DSPC   C4B   69   1.463   6.086   5.346
    5DSPC   C5B   70   1.558   6.597   5.304
    6DSPC   NC3   71   7.371   2.115   5.846
    6DSPC   PO4   72   7.172   1.932   6.238
    6DSPC   GL1   73   7.264   1.652   6.545
    6DSPC   GL2   74   7.485   1.450   6.468
    6DSPC   C1A   75   6.831   1.365   6.633
    6DSPC   C2A   76   6.701   0.856   6.723
    6DSPC   C3A   77   6.524   0.530   6.525
    6DSPC   C4A   78   6.821   0.156   6.369
    6DSPC   C5A   79   7.089  -0.087   6.284
    6DSPC   C1B   80   7.637   1.033   6.516
    6DSPC   C2B   81   7.712   0.541   6.573
    6DSPC   C3B   82   7.848   0.144   6.818
    6DSPC   C4B   83   7.979  -0.214   6.623
    6DSPC   C5B   84   8.316  -0.610   6.581
    7DSPC   NC3   85   2.833   6.399   1.635
    7DSPC   PO4   86   2.451   6.446   1.353
    7DSPC   GL1   87   2.347   6.403   0.943
    7DSPC   GL2   88   2.589   6.416   0.750
    7DSPC   C1A   89   2.039   6.810   0.814
    7DSPC   C2A   90   1.976   7.150   0.407
    7DSPC   C3A   91   2.052   7.553   0.311
    7DSPC   C4A   92   2.431   7.655  -0.002
    7DSPC   C5A   93   2.718   7.665  -0.238
    7DSPC   C1B   94   2.733   6.539   0.346
    7DSPC   C2B   95   2.830   6.752  -0.097
    7DSPC   C3B   96   2.821   6.779  -0.582
    7DSPC   C4B   97   3.111   6.999  -0.807
    7DSPC   C5B   98   3.443   7.033  -1.209
    8DSPC   NC3   99   6.495   4.756   2.617
    8DSPC   PO4  100   6.879   4.524   2.455
    8DSPC   GL1  101   7.022   4.126   2.417
    8DSPC   GL2  102   6.883   3.925   2.605
    8DSPC   C1A  103   7.530   4.125   2.554
    8DSPC   C2A  104   7.868   3.822   2.834
    8DSPC   C3A  105   8.069   3.822   3.203
    8DSPC   C4A  106   7.902   3.516   3.565
    8DSPC   C5A  107   7.736   3.269   3.787
    8DSPC   C1B  108   6.931   3.553   2.849
    8DSPC   C2B  109   7.077   3.170   3.138
    8DSPC   C3B  110   7.204   2.709   3.223
    8DSPC   C4B  111   7.157   2.524   3.606
    8DSPC   C5B  112   7.007   2.118   3.898
    9DSPC   NC3  113   4.626   3.529   7.790
    9DSPC   PO4  114   4.824   3.401   7.376
    9DSPC   GL1  115   4.806   3.082   7.095
    9DSPC   GL2  116   4.691   2.820   7.211
    9DSPC   C1A  117   5.299   2.971   6.948
    9DSPC   C2A  118   5.599   2.541   6.852
    9DSPC   C3A  119   5.913   2.322   7.029
    9DSPC   C4A  120   5.804   1.879   7.239
    9DSPC   C5A  121   5.663   1.562   7.371
    9DSPC   C1B  122   4.704   2.374   7.198
    9DSPC   C2B  123   4.816   1.886   7.166
    9DSPC   C3B  124   4.809   1.448   6.956
    9DSPC   C4B  125   4.852   1.085   7.179
    9DSPC   C5B  126   4.700   0.596   7.284
   10DSPC   NC3  127   1.691   4.508   5.899
   10DSPC   PO4  128   1.520   4.623   6.329
   10DSPC   GL1  129   1.199   4.518   6.587
   10DSPC   GL2  130   0.961   4.385   6.442
   10DSPC   C1A  131   1.010   4.963   6.795
   10DSPC   C2A  132   0.537   5.181   6.909
   10DSPC   C3A  133   0.279   5.482   6.766
   10DSPC   C4A  134  -0.135   5.343   6.520
   10DSPC   C5A  135  -0.423   5.178   6.352
   10DSPC   C1B  136   0.518   4.331   6.432
   10DSPC   C2B  137   0.018   4.365   6.453
   10DSPC   C3B  138  -0.421   4.265   6.635
   10DSPC   C4B  139  -0.779   4.287   6.402
   10DSPC   C5B  140  -1.235   4.083   6.250
   11DSPC   NC3  141   6.374   0.340   3.366
   11DSPC   PO4  142   6.262   0.173   2.933
   11DSPC   GL1  143   6.060   0.300   2.582
   11DSPC   GL2  144   5.864   0.535   2.628
   11DSPC   C1A  145   5.767  -0.103   2.413
   11DSPC   C2A  146   5.279  -0.185   2.213
   11DSPC   C3A  147   4.906  -0.342   2.330
   11DSPC   C4A  148   4.531  -0.021   2.422
   11DSPC   C5A  149   4.297   0.263   2.471
   11DSPC   C1B  150   5.478   0.723   2.504
   11DSPC   C2B  151   5.016   0.841   2.351
   11DSPC   C3B  152   4.690   1.021   2.038
   11DSPC   C4B  153   4.310   1.173   2.163
   11DSPC   C5B  154   3.941   1.542   2.143
   12DSPC   NC3  155   2.419   3.193   1.603
   12DSPC   PO4  156   2.619   3.010   1.210
   12DSPC   GL1  157   2.941   3.092   0.945
   12DSPC   GL2  158   3.037   3.386   0.952
   12DSPC   C1A  159   2.768   3.008   0.455
   12DSPC   C2A  160   2.806   3.235  -0.026
   12DSPC   C3A  161   2.572   3.461  -0.294
   12DSPC   C4A  162   2.670   3.951  -0.341
   12DSPC   C5A  163   2.793   4.302  -0.335
   12DSPC   C1B  164   3.208   3.724   0.715
   12DSPC   C2B  165   3.345   4.066   0.376
   12DSPC   C3B  166   3.658   4.282   0.073
   12DSPC   C4B  167   3.620   4.693  -0.043
   12DSPC   C5B  168   3.833   5.162  -0.124
   13DSPC   NC3  169   2.182   5.173   6.576
   13DSPC   PO4  170   2.235   5.647   6.583
   13DSPC   GL1  171   2.264   5.963   6.865
   13DSPC   GL2  172   2.149   5.894   7.143
   13DSPC   C1A  173   1.973   6.364   6.685
   13DSPC   C2A  174   1.631   6.726   6.876
   13DSPC   C3A  175   1.219   6.809   6.876
   13DSPC   C4A  176   0.959   6.723   7.298
   13DSPC   C5A  177   0.826   6.644   7.635
   13DSPC   C1B  178   1.939   6.050   7.506
   13DSPC   C2B  179   1.657   6.283   7.848
   13DSPC   C3B  180   1.581   6.585   8.221
   13DSPC   C4B  181   1.251   6.541   8.490
   13DSPC   C5B  182   1.062   6.531   8.977
   14DSPC   NC3  183   7.199  -0.439   5.560
   14DSPC   PO4  184   6.847  -0.272   5.284
   14DSPC   GL1  185   6.785  -0.146   4.883
   14DSPC   GL2  186   7.045  -0.067   4.735
   14DSPC   C1A  187   6.488   0.288   4.897
   14DSPC   C2A  188   6.463   0.763   4.654
   14DSPC   C3A  189   6.545   1.168   4.733
   14DSPC   C4A  190   6.954   1.373   4.524
   14DSPC   C5A  191   7.262   1.466   4.340
   14DSPC   C1B  192   7.228   0.202   4.429
   14DSPC   C2B  193   7.367   0.569   4.118
   14DSPC   C3B  194   7.407   0.785   3.684
   14DSPC   C4B  195   7.716   1.066   3.594
   14DSPC   C5B  196   8.086   1.246   3.272
   15DSPC   NC3  197   8.418   6.948   6.031
   15DSPC   PO4  198   8.264   7.152   6.434
   15DSPC   GL1  199   8.095   7.038   6.807
   15DSPC   GL2  200   7.962   6.760   6.804
   15DSPC   C1A  201   7.711   7.382   6.918
   15DSPC   C2A  202   7.216   7.376   7.116
   15DSPC   C3A  203   6.818   7.418   6.986
   15DSPC   C4A  204   6.532   7.006   6.958
   15DSPC   C5A  205   6.374   6.670   6.962
   15DSPC   C1B  206   7.631   6.507   6.968
   15DSPC   C2B  207   7.209   6.308   7.151
   15DSPC   C3B  208   6.933   6.109   7.498
   15DSPC   C4B  209   6.602   5.852   7.410
   15DSPC   C5B  210   6.332   5.414   7.500
   16DSPC   NC3  211   3.154   5.442   1.448
   16DSPC   PO4  212   2.679   5.397   1.438
   16DSPC   GL1  213   2.335   5.602   1.579
   16DSPC   GL2  214   2.390   5.794   1.814
   16DSPC   C1A  215   2.000   5.240   1.764
   16DSPC   C2A  216   1.672   5.175   2.180
   16DSPC   C3A  217   1.649   4.958   2.540
   16DSPC   C4A  218   1.726   5.204   2.971
   16DSPC   C5A  219   1.788   5.439   3.252
   16DSPC   C1B  220   2.229   5.974   2.190
   16DSPC   C2B  221   2.003   6.090   2.622
   16DSPC   C3B  222   1.678   6.322   2.899
   16DSPC   C4B  223   1.740   6.397   3.315
   16DSPC   C5B  224   1.726   6.720   3.725
   17DSPC   NC3  225   0.596   4.238   3.574
   17DSPC   PO4  226   0.862   4.034   3.235
   17DSPC   GL1  227   0.852   3.696   2.978
   17DSPC   GL2  228   0.662   3.471   3.074
   17DSPC   C1A  229   1.334   3.485   2.972
   17DSPC   C2A  230   1.559   3.001   2.983
   17DSPC   C3A  231   1.769   2.751   3.248
   17DSPC   C4A  232   1.528   2.358   3.447
   17DSPC   C5A  233   1.299   2.087   3.556
   17DSPC   C1B  234   0.591   3.031   3.091
   17DSPC   C2B  235   0.609   2.530   3.117
   17DSPC   C3B  236   0.568   2.080   2.938
   17DSPC   C4B  237   0.483   1.741   3.184
   17DSPC   C5B  238   0.217   1.301   3.273
   18DSPC   NC3  239   6.144   2.531   2.844
   18DSPC   PO4  240   5.671   2.487   2.877
   18DSPC   GL1  241   5.377   2.385   3.167
   18DSPC   GL2  242   5.488   2.223   3.406
   18DSPC   C1A  243   5.024   2.073   2.932
   18DSPC   C2A  244   4.746   1.631   3.042
   18DSPC   C3A  245   4.741   1.222   2.943
   18DSPC   C4A  246   4.905   0.892   3.284
   18DSPC   C5A  247   5.033   0.700   3.575
   18DSPC   C1B  248   5.401   1.907   3.709
   18DSPC   C2B  249   5.250   1.511   3.977
   18DSPC   C3B  250   4.996   1.290   4.328
   18DSPC   C4B  251   5.122   0.921   4.506
   18DSPC   C5B  252   5.203   0.627   4.929
   19DSPC   NC3  253   4.223   2.946   3.402
   19DSPC   PO4  254   4.526   2.603   3.537
   19DSPC   GL1  255   4.525   2.244   3.765
   19DSPC   GL2  256   4.290   2.224   3.964
   19DSPC   C1A  257   4.963   2.240   4.057
   19DSPC   C2A  258   5.110   2.114   4.554
   19DSPC   C3A  259   5.221   2.302   4.913
   19DSPC   C4A  260   4.889   2.308   5.291
   19DSPC   C5A  261   4.607   2.276   5.530
   19DSPC   C1B  262   4.156   2.071   4.362
   19DSPC   C2B  263   4.098   1.921   4.837
   19DSPC   C3B  264   4.035   1.590   5.187
   19DSPC   C4B  265   3.852   1.683   5.562
   19DSPC   C5B  266   3.514   1.567   5.943
   20DSPC   NC3  267   1.992   4.586   1.191
   20DSPC   PO4  268   1.755   4.229   1.400
   20DSPC   GL1  269   1.359   4.134   1.523
   20DSPC   GL2  270   1.178   4.381   1.561
   20DSPC   C1A  271   1.391   3.903   1.995
   20DSPC   C2A  272   1.134   3.914   2.462
   20DSPC   C3A  273   1.185   4.060   2.853
   20DSPC   C4A  274   0.919   4.462   2.994
   20DSPC   C5A  275   0.695   4.755   3.038
   20DSPC   C1B  276   0.840   4.558   1.793
   20DSPC   C2B  277   0.499   4.707   2.129
   20DSPC   C3B  278   0.055   4.720   2.327
   20DSPC   C4B  279  -0.084   5.051   2.559
   20DSPC   C5B  280  -0.456   5.398   2.677
   21DSPC   NC3  281   2.127   4.935   6.203
   21DSPC   PO4  282   2.003   5.306   5.931
   21DSPC   GL1  283   1.684   5.427   5.678
   21DSPC   GL2  284   1.511   5.193   5.573
   21DSPC   C1A  285   1.895   5.652   5.251
   21DSPC   C2A  286   1.820   5.657   4.724
   21DSPC   C3A  287   1.996   5.505   4.373
   21DSPC   C4A  288   1.770   5.121   4.140
   21DSPC   C5A  289   1.557   4.844   4.014
   21DSPC   C1B  290   1.266   5.038   5.234
   21DSPC   C2B  291   1.057   4.912   4.796
   21DSPC   C3B  292   0.711   4.929   4.454
   21DSPC   C4B  293   0.641   4.606   4.182
   21DSPC   C5B  294   0.312   4.285   3.934
   22DSPC   NC3  295   4.190  -0.983   5.769
   22DSPC   PO4  296   4.002  -0.550   5.834
   22DSPC   GL1  297   4.069  -0.149   5.711
   22DSPC   GL2  298   4.356  -0.095   5.611
   22DSPC   C1A  299   4.002   0.159   6.133
   22DSPC   C2A  300   4.234   0.584   6.358
   22DSPC   C3A  301   4.476   0.679   6.689
   22DSPC   C4A  302   4.961   0.783   6.607
   22DSPC   C5A  303   5.304   0.853   6.482
   22DSPC   C1B  304   4.688   0.204   5.584
   22DSPC   C2B  305   5.026   0.569   5.641
   22DSPC   C3B  306   5.229   0.999   5.540
   22DSPC   C4B  307   5.642   1.082   5.613
   22DSPC   C5B  308   6.100   1.279   5.456
   23DSPC   NC3  309   2.712  -0.385   2.709
   23DSPC   PO4  310   2.617   0.081   2.670
   23DSPC   GL1  311   2.803   0.436   2.530
   23DSPC   GL2  312   3.111   0.417   2.512
   23DSPC   C1A  313   2.702   0.817   2.879
   23DSPC   C2A  314   2.958   1.221   3.114
   23DSPC   C3A  315   3.122   1.323   3.488
   23DSPC   C4A  316   3.621   1.318   3.539
   23DSPC   C5A  317   3.991   1.300   3.512
   23DSPC   C1B  318   3.497   0.639   2.549
   23DSPC   C2B  319   3.884   0.937   2.662
   23DSPC   C3B  320   4.198   1.298   2.578
   23DSPC   C4B  321   4.586   1.313   2.758
   23DSPC   C5B  322   5.101   1.391   2.719
   24DSPC   NC3  323   2.845   4.933   7.524
   24DSPC   PO4  324   2.608   4.727   7.165
   24DSPC   GL1  325   2.210   4.696   7.018
   24DSPC   GL2  326   1.994   4.758   7.230
   24DSPC   C1A  327   2.133   4.196   6.874
   24DSPC   C2A  328   1.751   3.825   6.907
   24DSPC   C3A  329   1.664   3.472   7.119
   24DSPC   C4A  330   1.316   3.491   7.482
   24DSPC   C5A  331   1.051   3.568   7.730
   24DSPC   C1B  332   1.581   4.664   7.374
   24DSPC   C2B  333   1.140   4.466   7.506
   24DSPC   C3B  334   0.660   4.400   7.466
   24DSPC   C4B  335   0.415   4.284   7.797
   24DSPC   C5B  336  -0.019   4.342   8.082
   25DSPC   NC3  337   5.670   3.328   3.888
   25DSPC   PO4  338   5.570   3.727   3.647
   25DSPC   GL1  339   5.455   3.845   3.255
   25DSPC   GL2  340   5.519   3.636   3.037
   25DSPC   C1A  341   5.733   4.274   3.130
   25DSPC   C2A  342   5.993   4.473   2.709
   25DSPC   C3A  343   6.388   4.534   2.575
   25DSPC   C4A  344   6.567   4.232   2.216
   25DSPC   C5A  345   6.638   3.982   1.950
   25DSPC   C1B  346   5.637   3.571   2.611
   25DSPC   C2B  347   5.822   3.581   2.145
   25DSPC   C3B  348   5.793   3.637   1.664
   25DSPC   C4B  349   6.066   3.449   1.392
   25DSPC   C5B  350   6.156   3.178   0.955
   26DSPC   NC3  351   5.527   5.008   6.194
   26DSPC   PO4  352   5.714   5.275   5.846
   26DSPC   GL1  353   5.730   5.284   5.421
   26DSPC   GL2  354   5.671   5.012   5.288
   26DSPC   C1A  355   6.223   5.409   5.284
   26DSPC   C2A  356   6.585   5.262   4.921
   26DSPC   C3A  357   6.944   5.042   4.897
   26DSPC   C4A  358   6.930   4.586   4.688
   26DSPC   C5A  359   6.856   4.262   4.521
   26DSPC   C1B  360   5.761   4.743   4.942
   26DSPC   C2B  361   5.953   4.479   4.562
   26DSPC   C3B  362   6.006   4.361   4.093
   26DSPC   C4B  363   6.129   3.971   3.966
   26DSPC   C5B  364   6.071   3.558   3.652
   27DSPC   NC3  365   2.864   1.946   3.163
   27DSPC   PO4  366   3.020   2.003   3.610
   27DSPC   GL1  367   2.929   2.232   3.956
   27DSPC   GL2  368   2.765   2.487   3.898
   27DSPC   C1A  369   3.384   2.396   4.164
   27DSPC   C2A  370   3.586   2.839   4.383
   27DSPC   C3A  371   3.852   3.151   4.288
   27DSPC   C4A  372   3.661   3.603   4.182
   27DSPC   C5A  373   3.461   3.909   4.118
   27DSPC   C1B  374   2.686   2.911   4.017
   27DSPC   C2B  375   2.693   3.387   4.173
   27DSPC   C3B  376   2.590   3.749   4.480
   27DSPC   C4B  377   2.563   4.158   4.354
   27DSPC   C5B  378   2.316   4.618   4.357
   28DSPC   NC3  379   4.956   2.718   5.363
   28DSPC   PO4  380   4.928   2.718   5.839
   28DSPC   GL1  381   4.746   2.942   6.150
   28DSPC   GL2  382   4.665   3.229   6.067
   28DSPC   C1A  383   5.101   2.998   6.535
   28DSPC   C2A  384   5.271   3.377   6.869
   28DSPC   C3A  385   5.601   3.633   6.925
   28DSPC   C4A  386   5.547   4.119   6.813
   28DSPC   C5A  387   5.444   4.463   6.718
   28DSPC   C1B  388   4.617   3.652   6.202
   28DSPC   C2B  389   4.642   4.108   6.409
   28DSPC   C3B  390   4.487   4.467   6.697
   28DSPC   C4B  391   4.582   4.878   6.625
   28DSPC   C5B  392   4.436   5.378   6.593
   29DSPC   NC3  393   4.546   6.825   1.557
   29DSPC   PO4  394   4.379   6.689   1.983
   29DSPC   GL1  395   4.487   6.713   2.393
   29DSPC   GL2  396   4.787   6.766   2.440
   29DSPC   C1A  397   4.387   6.244   2.611
   29DSPC   C2A  398   4.615   5.908   2.956
   29DSPC   C3A  399   4.820   5.540   2.959
   29DSPC   C4A  400   5.316   5.544   3.034
   29DSPC   C5A  401   5.676   5.612   3.097
   29DSPC   C1B  402   5.138   6.692   2.707
   29DSPC   C2B  403   5.489   6.520   3.021
   29DSPC   C3B  404   5.730   6.502   3.442
   29DSPC   C4B  405   6.135   6.368   3.472
   29DSPC   C5B  406   6.621   6.427   3.655
   30DSPC   NC3  407   1.127   4.778   4.522
   30DSPC   PO4  408   1.094   4.654   4.062
   30DSPC   GL1  409   0.928   4.802   3.700
   30DSPC   GL2  410   0.703   5.009   3.741
   30DSPC   C1A  411   0.708   4.396   3.448
   30DSPC   C2A  412   0.264   4.291   3.171
   30DSPC   C3A  413  -0.101   4.086   3.215
   30DSPC   C4A  414  -0.519   4.356   3.284
   30DSPC   C5A  415  -0.788   4.608   3.327
   30DSPC   C1B  416   0.319   5.173   3.582
   30DSPC   C2B  417  -0.129   5.263   3.376
   30DSPC   C3B  418  -0.428   5.446   3.039
   30DSPC   C4B  419  -0.836   5.545   3.122
   30DSPC   C5B  420  -1.239   5.876   3.086
   31DSPC   NC3  421   3.750   8.093   2.746
   31DSPC   PO4  422   3.486   7.980   3.127
   31DSPC   GL1  423   3.517   7.981   3.551
   31DSPC   GL2  424   3.808   7.984   3.655
   31DSPC   C1A  425   3.305   7.532   3.726
   31DSPC   C2A  426   3.408   7.158   4.093
   31DSPC   C3A  427   3.548   6.762   4.117
   31DSPC   C4A  428   4.016   6.683   4.282
   31DSPC   C5A  429   4.363   6.691   4.413
   31DSPC   C1B  430   4.086   7.850   3.978
   31DSPC   C2B  431   4.340   7.618   4.343
   31DSPC   C3B  432   4.491   7.556   4.801
   31DSPC   C4B  433   4.857   7.357   4.898
   31DSPC   C5B  434   5.303   7.334   5.169
   32DSPC   NC3  435   1.361   4.763   6.304
   32DSPC   PO4  436   1.668   4.909   5.970
   32DSPC   GL1  437   1.946   4.743   5.695
   32DSPC   GL2  438   2.040   4.458   5.768
   32DSPC   C1A  439   2.378   5.045   5.704
   32DSPC   C2A  440   2.907   4.983   5.702
   32DSPC   C3A  441   3.235   5.013   5.964
   32DSPC   C4A  442   3.448   4.588   6.129
   32DSPC   C5A  443   3.561   4.244   6.210
   32DSPC   C1B  444   2.379   4.167   5.758
   32DSPC   C2B  445   2.815   3.920   5.758
   32DSPC   C3B  446   3.175   3.665   5.554
   32DSPC   C4B  447   3.424   3.398   5.777
   32DSPC   C5B  448   3.662   2.936   5.827
   33DSPC   NC3  449   6.617   4.525   7.551
   33DSPC   PO4  450   6.572   4.433   7.085
   33DSPC   GL1  451   6.644   4.622   6.711
   33DSPC   GL2  452   6.664   4.930   6.729
   33DSPC   C1A  453   6.233   4.521   6.399
   33DSPC   C2A  454   5.927   4.777   6.046
   33DSPC   C3A  455   5.540   4.940   6.015
   33DSPC   C4A  456   5.488   5.439   6.032
   33DSPC   C5A  457   5.516   5.809   6.047
   33DSPC   C1B  458   6.585   5.317   6.520
   33DSPC   C2B  459   6.418   5.705   6.249
   33DSPC   C3B  460   6.434   6.021   5.881
   33DSPC   C4B  461   6.253   6.408   5.901
   33DSPC   C5B  462   6.274   6.924   5.821
   34DSPC   NC3  463   1.695   4.365  -0.269
   34DSPC   PO4  464   1.430   4.410   0.124
   34DSPC   GL1  465   1.297   4.173   0.452
   34DSPC   GL2  466   1.306   3.869   0.398
   34DSPC   C1A  467   0.791   4.290   0.537
   34DSPC   C2A  468   0.337   4.035   0.653
   34DSPC   C3A  469  -0.023   3.919   0.468
   34DSPC   C4A  470  -0.085   3.435   0.350
   34DSPC   C5A  471  -0.073   3.068   0.293
   34DSPC   C1B  472   1.114   3.474   0.480
   34DSPC   C2B  473   0.815   3.083   0.571
   34DSPC   C3B  474   0.629   2.728   0.847
   34DSPC   C4B  475   0.462   2.371   0.681
   34DSPC   C5B  476   0.414   1.851   0.680
   35DSPC   NC3  477   1.471   2.288   4.419
   35DSPC   PO4  478   1.709   1.902   4.565
   35DSPC   GL1  479   2.105   1.747   4.560
   35DSPC   GL2  480   2.286   1.873   4.343
   35DSPC   C1A  481   2.073   1.234   4.442
   35DSPC   C2A  482   2.330   0.878   4.139
   35DSPC   C3A  483   2.278   0.666   3.780
   35DSPC   C4A  484   2.542   0.811   3.377
   35DSPC   C5A  485   2.766   0.961   3.122
   35DSPC   C1B  486   2.623   1.804   4.058
   35DSPC   C2B  487   2.963   1.636   3.730
   35DSPC   C3B  488   3.406   1.492   3.594
   35DSPC   C4B  489   3.544   1.520   3.190
   35DSPC   C5B  490   3.915   1.647   2.845
   36DSPC   NC3  491   1.438   1.961   4.238
   36DSPC   PO4  492   1.339   1.644   4.581
   36DSPC   GL1  493   1.484   1.272   4.727
   36DSPC   GL2  494   1.654   1.115   4.522
   36DSPC   C1A  495   1.067   0.969   4.832
   36DSPC   C2A  496   0.917   0.461   4.771
   36DSPC   C3A  497   0.660   0.229   4.532
   36DSPC   C4A  498   0.863  -0.060   4.174
   36DSPC   C5A  499   1.070  -0.251   3.933
   36DSPC   C1B  500   1.770   0.711   4.372
   36DSPC   C2B  501   1.809   0.233   4.227
   36DSPC   C3B  502   1.968  -0.225   4.264
   36DSPC   C4B  503   2.002  -0.485   3.926
   36DSPC   C5B  504   2.273  -0.835   3.648
   37DSPC   NC3  505  -0.892   6.721   0.333
   37DSPC   PO4  506  -0.614   6.610   0.705
   37DSPC   GL1  507  -0.430   6.801   1.037
   37DSPC   GL2  508  -0.399   7.106   1.004
   37DSPC   C1A  509   0.058   6.608   1.081
   37DSPC   C2A  510   0.550   6.787   1.182
   37DSPC   C3A  511   0.911   6.865   0.981
   37DSPC   C4A  512   1.036   7.343   0.891
   37DSPC   C5A  513   1.074   7.711   0.859
   37DSPC   C1B  514  -0.147   7.463   1.098
   37DSPC   C2B  515   0.211   7.801   1.194
   37DSPC   C3B  516   0.461   8.105   1.479
   37DSPC   C4B  517   0.669   8.446   1.326
   37DSPC   C5B  518   0.792   8.953   1.355
   38DSPC   NC3  519   2.176   3.069  -0.213
   38DSPC   PO4  520   2.193   2.592  -0.204
   38DSPC   GL1  521   1.932   2.260  -0.252
   38DSPC   GL2  522   1.633   2.329  -0.212
   38DSPC   C1A  523   2.052   1.908   0.120
   38DSPC   C2A  524   1.798   1.582   0.457
   38DSPC   C3A  525   1.707   1.550   0.866
   38DSPC   C4A  526   1.236   1.645   1.014
   38DSPC   C5A  527   0.875   1.722   1.057
   38DSPC   C1B  528   1.237   2.181  -0.068
   38DSPC   C2B  529   0.846   1.966   0.160
   38DSPC   C3B  530   0.473   1.656   0.192
   38DSPC   C4B  531   0.135   1.727   0.445
   38DSPC   C5B  532  -0.382   1.733   0.520
   39DSPC   NC3  533   4.572   1.559   3.026
   39DSPC   PO4  534   4.889   1.280   2.803
   39DSPC   GL1  535   4.909   0.894   2.628
   39DSPC   GL2  536   4.690   0.700   2.727
   39DSPC   C1A  537   5.368   0.679   2.771
   39DSPC   C2A  538   5.554   0.206   2.932
   39DSPC   C3A  539   5.689   0.017   3.283
   39DSPC   C4A  540   5.388  -0.318   3.505
   39DSPC   C5A  541   5.124  -0.554   3.617
   39DSPC   C1B  542   4.589   0.275   2.821
   39DSPC   C2B  543   4.569  -0.207   2.957
   39DSPC   C3B  544   4.537  -0.685   2.873
   39DSPC   C4B  545   4.382  -0.960   3.163
   39DSPC   C5B  546   4.075  -1.364   3.284
   40DSPC   NC3  547   4.163   1.471   6.433
   40DSPC   PO4  548   4.301   1.166   6.772
   40DSPC   GL1  549   4.434   1.172   7.176
   40DSPC   GL2  550   4.548   1.445   7.266
   40DSPC   C1A  551   4.832   0.830   7.217
   40DSPC   C2A  552   5.310   0.800   7.452
   40DSPC   C3A  553   5.718   0.816   7.352
   40DSPC   C4A  554   5.976   1.231   7.469
   40DSPC   C5A  555   6.110   1.558   7.584
   40DSPC   C1B  556   4.847   1.654   7.524
   40DSPC   C2B  557   5.239   1.810   7.794
   40DSPC   C3B  558   5.475   1.911   8.207
   40DSPC   C4B  559   5.792   2.197   8.227
   40DSPC   C5B  560   6.024   2.601   8.463
   41DSPC   NC3  561   1.663   5.382  -0.500
   41DSPC   PO4  562   2.033   5.140  -0.321
   41DSPC   GL1  563   2.164   4.979   0.050
   41DSPC   GL2  564   2.028   5.108   0.296
   41DSPC   C1A  565   2.678   5.083   0.096
   41DSPC   C2A  566   3.020   5.244   0.472
   41DSPC   C3A  567   3.238   5.587   0.582
   41DSPC   C4A  568   3.081   5.852   0.979
   41DSPC   C5A  569   2.919   6.000   1.279
   41DSPC   C1B  570   2.078   5.230   0.723
   41DSPC   C2B  571   2.228   5.387   1.175
   41DSPC   C3B  572   2.346   5.327   1.643
   41DSPC   C4B  573   2.313   5.641   1.931
   41DSPC   C5B  574   2.165   5.810   2.403
   42DSPC   NC3  575   5.362   5.536   0.953
   42DSPC   PO4  576   5.794   5.335   0.976
   42DSPC   GL1  577   6.114   5.291   1.252
   42DSPC   GL2  578   6.113   5.501   1.479
   42DSPC   C1A  579   6.563   5.365   0.988
   42DSPC   C2A  580   7.031   5.610   1.057
   42DSPC   C3A  581   7.237   5.952   0.925
   42DSPC   C4A  582   7.282   6.340   1.240
   42DSPC   C5A  583   7.285   6.588   1.517
   42DSPC   C1B  584   6.364   5.748   1.754
   42DSPC   C2B  585   6.709   6.028   1.986
   42DSPC   C3B  586   7.058   6.110   2.314
   42DSPC   C4B  587   7.147   6.501   2.464
   42DSPC   C5B  588   7.249   6.822   2.863
   43DSPC   NC3  589   4.911   5.137   2.958
   43DSPC   PO4  590   4.903   5.577   3.141
   43DSPC   GL1  591   4.825   5.976   3.017
   43DSPC   GL2  592   4.848   6.018   2.712
   43DSPC   C1A  593   5.191   6.285   3.235
   43DSPC   C2A  594   5.497   6.699   3.097
   43DSPC   C3A  595   5.899   6.784   3.002
   43DSPC   C4A  596   6.017   6.869   2.521
   43DSPC   C5A  597   6.040   6.926   2.155
   43DSPC   C1B  598   4.959   6.304   2.387
   43DSPC   C2B  599   5.153   6.655   2.086
   43DSPC   C3B  600   5.148   7.077   1.845
   43DSPC   C4B  601   5.380   7.144   1.492
   43DSPC   C5B  602   5.421   7.323   1.003
   44DSPC   NC3  603   2.451   1.594   1.519
   44DSPC   PO4  604   2.648   1.343   1.165
   44DSPC   GL1  605   2.777   1.400   0.764
   44DSPC   GL2  606   2.651   1.646   0.625
   44DSPC   C1A  607   2.621   0.981   0.486
   44DSPC   C2A  608   2.410   0.876   0.007
   44DSPC   C3A  609   2.043   0.761  -0.163
   44DSPC   C4A  610   1.777   1.108  -0.411
   44DSPC   C5A  611   1.631   1.404  -0.582
   44DSPC   C1B  612   2.505   1.818   0.239
   44DSPC   C2B  613   2.314   1.918  -0.213
   44DSPC   C3B  614   2.341   2.038  -0.683
   44DSPC   C4B  615   2.018   2.227  -0.891
   44DSPC   C5B  616   1.843   2.596  -1.217
   45DSPC   NC3  617   6.561   2.188   6.036
   45DSPC   PO4  618   6.124   2.199   5.847
   45DSPC   GL1  619   5.936   2.151   5.469
   45DSPC   GL2  620   6.126   2.192   5.229
   45DSPC   C1A  621   5.567   2.524   5.427
   45DSPC   C2A  622   5.381   2.862   5.058
   45DSPC   C3A  623   5.393   3.271   4.962
   45DSPC   C4A  624   5.680   3.419   4.578
   45DSPC   C5A  625   5.905   3.463   4.285
   45DSPC   C1B  626   6.163   2.336   4.807
   45DSPC   C2B  627   6.137   2.565   4.362
   45DSPC   C3B  628   6.017   2.597   3.893
   45DSPC   C4B  629   6.226   2.851   3.618
   45DSPC   C5B  630   6.454   2.926   3.154
   46DSPC   NC3  631   7.427   3.627   3.265
   46DSPC   PO4  632   7.599   3.677   2.823
   46DSPC   GL1  633   7.465   3.653   2.421
   46DSPC   GL2  634   7.206   3.488   2.385
   46DSPC   C1A  635   7.836   3.401   2.144
   46DSPC   C2A  636   7.866   3.029   1.763
   46DSPC   C3A  637   7.969   2.624   1.718
   46DSPC   C4A  638   7.600   2.290   1.652
   46DSPC   C5A  639   7.287   2.096   1.604
   46DSPC   C1B  640   6.977   3.214   2.117
   46DSPC   C2B  641   6.809   2.872   1.790
   46DSPC   C3B  642   6.606   2.727   1.373
   46DSPC   C4B  643   6.401   2.353   1.334
   46DSPC   C5B  644   5.991   2.076   1.168
   47DSPC   NC3  645   4.550   5.204   4.608
   47DSPC   PO4  646   4.834   4.913   4.856
   47DSPC   GL1  647   5.220   4.914   5.033
   47DSPC   GL2  648   5.410   5.129   4.918
   47DSPC   C1A  649   5.445   4.450   4.928
   47DSPC   C2A  650   5.923   4.262   4.783
   47DSPC   C3A  651   6.116   4.104   4.445
   47DSPC   C4A  652   6.446   4.395   4.201
   47DSPC   C5A  653   6.677   4.653   4.069
   47DSPC   C1B  654   5.833   5.232   4.817
   47DSPC   C2B  655   6.315   5.252   4.682
   47DSPC   C3B  656   6.791   5.300   4.765
   47DSPC   C4B  657   7.064   5.438   4.465
   47DSPC   C5B  658   7.463   5.743   4.321
   48DSPC   NC3  659  -0.790   3.362   4.906
   48DSPC   PO4  660  -0.639   3.814   4.930
   48DSPC   GL1  661  -0.278   4.035   4.890
   48DSPC   GL2  662  -0.023   3.865   4.926
   48DSPC   C1A  663  -0.269   4.395   5.274
   48DSPC   C2A  664   0.081   4.603   5.618
   48DSPC   C3A  665   0.176   4.587   6.028
   48DSPC   C4A  666   0.583   4.330   6.169
   48DSPC   C5A  667   0.894   4.131   6.208
   48DSPC   C1B  668   0.400   3.861   5.072
   48DSPC   C2B  669   0.840   3.919   5.304
   48DSPC   C3B  670   1.298   4.078   5.342
   48DSPC   C4B  671   1.589   3.886   5.591
   48DSPC   C5B  672   2.070   3.697   5.662
   49DSPC   NC3  673   2.795   6.985   4.448
   49DSPC   PO4  674   2.812   7.101   4.910
   49DSPC   GL1  675   3.079   7.073   5.239
   49DSPC   GL2  676   3.298   6.857   5.205
   49DSPC   C1A  677   2.798   6.928   5.661
   49DSPC   C2A  678   2.844   6.598   6.077
   49DSPC   C3A  679   2.692   6.229   6.212
   49DSPC   C4A  680   2.992   5.826   6.191
   49DSPC   C5A  681   3.259   5.571   6.153
   49DSPC   C1B  682   3.556   6.556   5.412
   49DSPC   C2B  683   3.767   6.208   5.704
   49DSPC   C3B  684   4.080   6.048   6.039
   49DSPC   C4B  685   4.212   5.641   6.056
   49DSPC   C5B  686   4.596   5.290   6.106
   50DSPC   NC3  687  -0.452  -0.353   0.778
   50DSPC   PO4  688  -0.385  -0.101   0.379
   50DSPC   GL1  689  -0.068   0.008   0.117
   50DSPC   GL2  690   0.212  -0.015   0.243
   50DSPC   C1A  691  -0.132   0.516  -0.007
   50DSPC   C2A  692   0.169   0.952  -0.069
   50DSPC   C3A  693   0.257   1.312   0.131
   50DSPC   C4A  694   0.701   1.355   0.362
   50DSPC   C5A  695   1.041   1.326   0.507
   50DSPC   C1B  696   0.626   0.155   0.256
   50DSPC   C2B  697   1.044   0.431   0.256
   50DSPC   C3B  698   1.465   0.588   0.071
   50DSPC   C4B  699   1.780   0.744   0.315
   50DSPC   C5B  700   2.286   0.766   0.442
   51DSPC   NC3  701   1.412   3.326   6.072
   51DSPC   PO4  702   1.179   3.365   6.486
   51DSPC   GL1  703   1.122   3.145   6.845
   51DSPC   GL2  704   1.183   2.843   6.818
   51DSPC   C1A  705   0.612   3.178   6.973
   51DSPC   C2A  706   0.226   2.861   7.158
   51DSPC   C3A  707  -0.121   2.664   7.023
   51DSPC   C4A  708  -0.102   2.167   6.956
   51DSPC   C5A  709  -0.026   1.804   6.931
   51DSPC   C1B  710   1.076   2.431   6.954
   51DSPC   C2B  711   0.864   2.005   7.111
   51DSPC   C3B  712   0.773   1.655   7.435
   51DSPC   C4B  713   0.661   1.258   7.320
   51DSPC   C5B  714   0.711   0.740   7.370
   52DSPC   NC3  715   4.026   6.840  -0.872
   52DSPC   PO4  716   3.846   6.850  -0.430
   52DSPC   GL1  717   3.971   6.781  -0.030
   52DSPC   GL2  718   4.224   6.606  -0.007
   52DSPC   C1A  719   3.588   6.513   0.212
   52DSPC   C2A  720   3.540   6.105   0.552
   52DSPC   C3A  721   3.425   5.700   0.554
   52DSPC   C4A  722   3.784   5.351   0.592
   52DSPC   C5A  723   4.091   5.145   0.626
   52DSPC   C1B  724   4.440   6.300   0.236
   52DSPC   C2B  725   4.592   5.922   0.529
   52DSPC   C3B  726   4.783   5.730   0.932
   52DSPC   C4B  727   4.977   5.348   0.937
   52DSPC   C5B  728   5.376   5.044   1.081
   53DSPC   NC3  729   4.739   2.548   1.926
   53DSPC   PO4  730   4.702   2.944   1.664
   53DSPC   GL1  731   4.554   3.341   1.701
   53DSPC   GL2  732   4.346   3.377   1.927
   53DSPC   C1A  733   4.302   3.459   1.253
   53DSPC   C2A  734   3.855   3.705   1.100
   53DSPC   C3A  735   3.473   3.613   0.949
   53DSPC   C4A  736   3.079   3.650   1.259
   53DSPC   C5A  737   2.832   3.701   1.532
   53DSPC   C1B  738   3.980   3.595   2.060
   53DSPC   C2B  739   3.544   3.837   2.114
   53DSPC   C3B  740   3.267   4.226   2.202
   53DSPC   C4B  741   2.868   4.195   2.354
   53DSPC   C5B  742   2.496   4.351   2.686
   54DSPC   NC3  743   5.542   2.470   2.541
   54DSPC   PO4  744   5.417   2.258   2.132
   54DSPC   GL1  745   5.409   2.343   1.716
   54DSPC   GL2  746   5.413   2.645   1.649
   54DSPC   C1A  747   4.953   2.160   1.525
   54DSPC   C2A  748   4.573   2.312   1.184
   54DSPC   C3A  749   4.178   2.457   1.187
   54DSPC   C4A  750   4.101   2.943   1.085
   54DSPC   C5A  751   4.110   3.304   0.999
   54DSPC   C1B  752   5.275   2.963   1.367
   54DSPC   C2B  753   5.039   3.264   1.044
   54DSPC   C3B  754   4.968   3.473   0.611
   54DSPC   C4B  755   4.771   3.850   0.566
   54DSPC   C5B  756   4.748   4.327   0.354
   55DSPC   NC3  757   3.858   5.516   2.332
   55DSPC   PO4  758   3.908   5.574   1.862
   55DSPC   GL1  759   3.972   5.887   1.581
   55DSPC   GL2  760   3.895   6.167   1.686
   55DSPC   C1A  761   3.657   5.797   1.168
   55DSPC   C2A  762   3.340   6.073   0.840
   55DSPC   C3A  763   2.931   6.138   0.768
   55DSPC   C4A  764   2.730   6.576   0.910
   55DSPC   C5A  765   2.644   6.916   1.032
   55DSPC   C1B  766   3.734   6.570   1.580
   55DSPC   C2B  767   3.498   6.972   1.396
   55DSPC   C3B  768   3.470   7.386   1.143
   55DSPC   C4B  769   3.179   7.689   1.228
   55DSPC   C5B  770   3.056   8.191   1.300
   56DSPC   NC3  771  -0.279   0.296   2.415
   56DSPC   PO4  772  -0.324   0.251   1.942
   56DSPC   GL1  773  -0.149   0.034   1.621
   56DSPC   GL2  774   0.133  -0.076   1.684
   56DSPC   C1A  775  -0.090   0.366   1.218
   56DSPC   C2A  776   0.274   0.480   0.845
   56DSPC   C3A  777   0.558   0.777   0.753
   56DSPC   C4A  778   1.044   0.673   0.826
   56DSPC   C5A  779   1.382   0.535   0.896
   56DSPC   C1B  780   0.535  -0.176   1.517
   56DSPC   C2B  781   0.970  -0.210   1.271
   56DSPC   C3B  782   1.284  -0.414   0.961
   56DSPC   C4B  783   1.707  -0.363   0.994
   56DSPC   C5B  784   2.190  -0.563   0.990
   57DSPC   NC3  785   4.468   4.050  -0.392
   57DSPC   PO4  786   3.999   4.132  -0.384
   57DSPC   GL1  787   3.663   4.056  -0.135
   57DSPC   GL2  788   3.705   3.822   0.063
   57DSPC   C1A  789   3.264   3.911  -0.446
   57DSPC   C2A  790   2.872   3.549  -0.450
   57DSPC   C3A  791   2.769   3.189  -0.642
   57DSPC   C4A  792   2.809   2.761  -0.381
   57DSPC   C5A  793   2.855   2.484  -0.138
   57DSPC   C1B  794   3.511   3.485   0.282
   57DSPC   C2B  795   3.238   3.098   0.447
   57DSPC   C3B  796   2.904   2.886   0.729
   57DSPC   C4B  797   2.911   2.468   0.821
   57DSPC   C5B  798   2.873   2.079   1.167
   58DSPC   NC3  799   5.379   3.448   7.902
   58DSPC   PO4  800   4.923   3.375   7.781
   58DSPC   GL1  801   4.621   3.081   7.830
   58DSPC   GL2  802   4.729   2.799   7.897
   58DSPC   C1A  803   4.371   3.032   7.369
   58DSPC   C2A  804   4.175   2.644   7.060
   58DSPC   C3A  805   4.265   2.444   6.701
   58DSPC   C4A  806   4.446   1.976   6.727
   58DSPC   C5A  807   4.570   1.636   6.813
   58DSPC   C1B  808   4.669   2.359   7.850
   58DSPC   C2B  809   4.567   1.890   7.708
   58DSPC   C3B  810   4.319   1.472   7.721
   58DSPC   C4B  811   4.491   1.098   7.604
   58DSPC   C5B  812   4.573   0.590   7.692
   59DSPC   NC3  813   8.334   2.692   3.434
   59DSPC   PO4  814   8.365   2.973   3.818
   59DSPC   GL1  815   8.113   3.134   4.119
   59DSPC   GL2  816   7.814   3.140   4.041
   59DSPC   C1A  817   8.254   3.637   4.191
   59DSPC   C2A  818   8.020   4.110   4.266
   59DSPC   C3A  819   7.941   4.466   4.057
   59DSPC   C4A  820   7.472   4.551   3.898
   59DSPC   C5A  821   7.111   4.558   3.812
   59DSPC   C1B  822   7.426   3.359   4.082
   59DSPC   C2B  823   7.048   3.685   4.129
   59DSPC   C3B  824   6.686   3.904   4.367
   59DSPC   C4B  825   6.353   4.084   4.165
   59DSPC   C5B  826   5.839   4.163   4.120
   60DSPC   NC3  827   3.141   6.713  -0.107
   60DSPC   PO4  828   3.302   6.409   0.223
   60DSPC   GL1  829   3.450   6.416   0.621
   60DSPC   GL2  830   3.555   6.692   0.711
   60DSPC   C1A  831   3.862   6.089   0.643
   60DSPC   C2A  832   4.349   6.076   0.861
   60DSPC   C3A  833   4.753   6.110   0.747
   60DSPC   C4A  834   4.997   6.534   0.861
   60DSPC   C5A  835   5.122   6.864   0.976
   60DSPC   C1B  836   3.854   6.909   0.962
   60DSPC   C2B  837   4.250   7.077   1.220
   60DSPC   C3B  838   4.495   7.182   1.626
   60DSPC   C4B  839   4.802   7.481   1.639
   60DSPC   C5B  840   5.025   7.891   1.873
   61DSPC   NC3  841   1.010   3.314   4.402
   61DSPC   PO4  842   0.819   3.225   4.830
   61DSPC   GL1  843   0.868   2.955   5.154
   61DSPC   GL2  844   1.013   2.693   5.078
   61DSPC   C1A  845   0.387   2.812   5.316
   61DSPC   C2A  846   0.134   2.370   5.473
   61DSPC   C3A  847  -0.150   2.094   5.329
   61DSPC   C4A  848   0.010   1.640   5.186
   61DSPC   C5A  849   0.187   1.325   5.102
   61DSPC   C1B  850   1.048   2.254   5.155
   61DSPC   C2B  851   0.991   1.767   5.258
   61DSPC   C3B  852   1.042   1.367   5.529
   61DSPC   C4B  853   1.042   0.973   5.362
   61DSPC   C5B  854   1.249   0.495   5.329
   62DSPC   NC3  855   4.086   5.636   4.976
   62DSPC   PO4  856   3.658   5.545   5.165
   62DSPC   GL1  857   3.409   5.212   5.252
   62DSPC   GL2  858   3.478   4.958   5.091
   62DSPC   C1A  859   2.917   5.341   5.115
   62DSPC   C2A  860   2.498   5.116   4.875
   62DSPC   C3A  861   2.293   5.130   4.508
   62DSPC   C4A  862   2.353   4.747   4.187
   62DSPC   C5A  863   2.433   4.438   3.999
   62DSPC   C1B  864   3.317   4.590   4.895
   62DSPC   C2B  865   3.059   4.233   4.656
   62DSPC   C3B  866   2.803   3.821   4.629
   62DSPC   C4B  867   2.782   3.586   4.272
   62DSPC   C5B  868   2.801   3.122   4.033
   63DSPC   NC3  869   2.209   5.876   2.982
   63DSPC   PO4  870   2.618   6.090   3.099
   63DSPC   GL1  871   2.755   6.468   3.238
   63DSPC   GL2  872   2.558   6.700   3.184
   63DSPC   C1A  873   3.193   6.586   2.971
   63DSPC   C2A  874   3.416   7.010   2.737
   63DSPC   C3A  875   3.488   7.163   2.352
   63DSPC   C4A  876   3.207   7.547   2.190
   63DSPC   C5A  877   2.973   7.829   2.132
   63DSPC   C1B  878   2.516   7.135   3.090
   63DSPC   C2B  879   2.552   7.609   2.932
   63DSPC   C3B  880   2.632   8.085   2.989
   63DSPC   C4B  881   2.461   8.380   2.730
   63DSPC   C5B  882   2.215   8.835   2.662
   64DSPC   NC3  883   5.929   8.364   6.864
   64DSPC   PO4  884   6.120   8.172   6.471
   64DSPC   GL1  885   6.137   7.797   6.272
   64DSPC   GL2  886   6.075   7.556   6.455
   64DSPC   C1A  887   6.631   7.729   6.104
   64DSPC   C2A  888   6.993   7.338   6.076
   64DSPC   C3A  889   7.349   7.217   6.265
   64DSPC   C4A  890   7.331   6.824   6.578
   64DSPC   C5A  891   7.254   6.530   6.792
   64DSPC   C1B  892   6.163   7.126   6.540
   64DSPC   C2B  893   6.353   6.667   6.607
   64DSPC   C3B  894   6.406   6.195   6.502
   64DSPC   C4B  895   6.524   5.906   6.794
   64DSPC   C5B  896   6.463   5.439   7.021
   65DSPC   NC3  897   1.822   2.253   2.688
   65DSPC   PO4  898   1.366   2.223   2.553
   65DSPC   GL1  899   1.110   1.958   2.340
   65DSPC   GL2  900   1.260   1.762   2.154
   65DSPC   C1A  901   0.805   2.251   2.026
   65DSPC   C2A  902   0.615   2.236   1.528
   65DSPC   C3A  903   0.675   2.422   1.156
   65DSPC   C4A  904   0.912   2.164   0.796
   65DSPC   C5A  905   1.087   1.923   0.574
   65DSPC   C1B  906   1.246   1.534   1.770
   65DSPC   C2B  907   1.181   1.357   1.306
   65DSPC   C3B  908   0.988   1.059   0.974
   65DSPC   C4B  909   1.185   0.968   0.605
   65DSPC   C5B  910   1.339   0.620   0.247
   66DSPC   NC3  911   4.236   2.546   6.315
   66DSPC   PO4  912   4.072   2.973   6.450
   66DSPC   GL1  913   4.220   3.339   6.608
   66DSPC   GL2  914   4.495   3.313   6.746
   66DSPC   C1A  915   3.885   3.498   6.981
   66DSPC   C2A  916   3.903   3.713   7.469
   66DSPC   C3A  917   3.842   3.603   7.870
   66DSPC   C4A  918   4.245   3.544   8.164
   66DSPC   C5A  919   4.577   3.520   8.329
   66DSPC   C1B  920   4.758   3.463   7.075
   66DSPC   C2B  921   4.969   3.640   7.494
   66DSPC   C3B  922   5.198   3.975   7.761
   66DSPC   C4B  923   5.440   3.874   8.100
   66DSPC   C5B  924   5.880   3.930   8.374
   67DSPC   NC3  925   0.246   8.551   5.684
   67DSPC   PO4  926   0.153   8.176   5.963
   67DSPC   GL1  927   0.359   7.905   6.217
   67DSPC   GL2  928   0.662   7.887   6.161
   67DSPC   C1A  929   0.166   7.423   6.127
   67DSPC   C2A  930   0.348   6.925   6.072
   67DSPC   C3A  931   0.413   6.638   5.770
   67DSPC   C4A  932   0.885   6.549   5.624
   67DSPC   C5A  933   1.251   6.526   5.564
   67DSPC   C1B  934   1.022   7.622   6.160
   67DSPC   C2B  935   1.362   7.255   6.131
   67DSPC   C3B  936   1.679   6.936   6.315
   67DSPC   C4B  937   2.011   6.785   6.091
   67DSPC   C5B  938   2.518   6.664   6.057
   68DSPC   NC3  939   3.058   2.349   3.347
   68DSPC   PO4  940   3.353   1.995   3.224
   68DSPC   GL1  941   3.582   1.688   3.408
   68DSPC   GL2  942   3.643   1.740   3.706
   68DSPC   C1A  943   4.049   1.671   3.166
   68DSPC   C2A  944   4.564   1.617   3.294
   68DSPC   C3A  945   4.914   1.850   3.322
   68DSPC   C4A  946   5.081   1.975   3.779
   68DSPC   C5A  947   5.154   2.029   4.139
   68DSPC   C1B  948   3.938   1.685   4.038
   68DSPC   C2B  949   4.336   1.634   4.338
   68DSPC   C3B  950   4.639   1.386   4.626
   68DSPC   C4B  951   4.868   1.573   4.935
   68DSPC   C5B  952   5.046   1.581   5.426
   69DSPC   NC3  953   3.917   5.366   4.416
   69DSPC   PO4  954   4.001   5.758   4.157
   69DSPC   GL1  955   3.940   5.901   3.762
   69DSPC   GL2  956   3.895   5.677   3.553
   69DSPC   C1A  957   4.378   6.152   3.614
   69DSPC   C2A  958   4.687   6.195   3.182
   69DSPC   C3A  959   5.062   6.065   3.041
   69DSPC   C4A  960   5.074   5.702   2.694
   69DSPC   C5A  961   5.016   5.438   2.439
   69DSPC   C1B  962   3.958   5.550   3.129
   69DSPC   C2B  963   4.113   5.458   2.662
   69DSPC   C3B  964   4.098   5.503   2.178
   69DSPC   C4B  965   4.248   5.202   1.914
   69DSPC   C5B  966   4.192   4.904   1.488
   70DSPC   NC3  967   3.857   4.130   0.074
   70DSPC   PO4  968   4.041   4.513   0.291
   70DSPC   GL1  969   4.310   4.606   0.607
   70DSPC   GL2  970   4.350   4.375   0.809
   70DSPC   C1A  971   4.101   5.003   0.882
   70DSPC   C2A  972   4.041   5.147   1.392
   70DSPC   C3A  973   3.740   5.170   1.686
   70DSPC   C4A  974   3.739   4.827   2.054
   70DSPC   C5A  975   3.795   4.552   2.297
   70DSPC   C1B  976   4.427   4.266   1.235
   70DSPC   C2B  977   4.459   4.224   1.734
   70DSPC   C3B  978   4.689   4.241   2.161
   70DSPC   C4B  979   4.563   4.013   2.501
   70DSPC   C5B  980   4.676   3.701   2.904
   71DSPC   NC3  981   4.803   1.623   2.680
   71DSPC   PO4  982   4.621   1.479   2.263
   71DSPC   GL1  983   4.447   1.646   1.913
   71DSPC   GL2  984   4.335   1.931   1.953
   71DSPC   C1A  985   4.035   1.346   1.782
   71DSPC   C2A  986   3.535   1.409   1.608
   71DSPC   C3A  987   3.139   1.381   1.749
   71DSPC   C4A  988   2.887   1.807   1.837
   71DSPC   C5A  989   2.754   2.151   1.877
   71DSPC   C1B  990   4.020   2.224   1.833
   71DSPC   C2B  991   3.608   2.472   1.693
   71DSPC   C3B  992   3.335   2.729   1.383
   71DSPC   C4B  993   3.028   2.997   1.513
   71DSPC   C5B  994   2.789   3.460   1.485
   72DSPC   NC3  995   5.725   6.107   2.220
   72DSPC   PO4  996   5.610   5.649   2.287
   72DSPC   GL1  997   5.763   5.263   2.197
   72DSPC   GL2  998   5.964   5.260   1.963
   72DSPC   C1A  999   5.358   4.964   2.044
   72DSPC   C2A 1000   5.250   4.598   1.671
   72DSPC   C3A 1001   5.037   4.561   1.310
   72DSPC   C4A 1002   5.297   4.545   0.881
   72DSPC   C5A 1003   5.542   4.535   0.602
   72DSPC   C1B 1004   6.124   5.027   1.617
   72DSPC   C2B 1005   6.209   4.733   1.220
   72DSPC   C3B 1006   6.394   4.344   0.994
   72DSPC   C4B 1007   6.483   4.341   0.575
   72DSPC   C5B 1008   6.806   4.227   0.181
   73DSPC   NC3 1009   0.224   4.183   4.681
   73DSPC   PO4 1010   0.148   3.717   4.749
   73DSPC   GL1 1011   0.157   3.432   5.064
   73DSPC   GL2 1012   0.326   3.519   5.307
   73DSPC   C1A 1013   0.385   2.996   4.878
   73DSPC   C2A 1014   0.737   2.629   5.040
   73DSPC   C3A 1015   1.137   2.517   4.973
   73DSPC   C4A 1016   1.477   2.624   5.327
   73DSPC   C5A 1017   1.676   2.725   5.624
   73DSPC   C1B 1018   0.593   3.384   5.639
   73DSPC   C2B 1019   0.922   3.165   5.946
   73DSPC   C3B 1020   1.052   2.895   6.329
   73DSPC   C4B 1021   1.429   2.941   6.527
   73DSPC   C5B 1022   1.708   2.984   6.966
   74DSPC   NC3 1023   3.596   6.970   3.267
   74DSPC   PO4 1024   3.139   7.039   3.149
   74DSPC   GL1 1025   2.866   6.930   2.842
   74DSPC   GL2 1026   3.002   6.842   2.579
   74DSPC   C1A 1027   2.582   7.357   2.722
   74DSPC   C2A 1028   2.393   7.602   2.288
   74DSPC   C3A 1029   2.468   7.943   2.053
   74DSPC   C4A 1030   2.687   7.881   1.605
   74DSPC   C5A 1031   2.845   7.770   1.288
   74DSPC   C1B 1032   2.973   6.834   2.134
   74DSPC   C2B 1033   2.897   6.912   1.644
   74DSPC   C3B 1034   2.685   6.829   1.215
   74DSPC   C4B 1035   2.876   6.919   0.842
   74DSPC   C5B 1036   3.006   6.783   0.355
   75DSPC   NC3 1037   2.244   7.688   5.832
   75DSPC   PO4 1038   2.633   7.713   5.557
   75DSPC   GL1 1039   2.741   7.676   5.148
   75DSPC   GL2 1040   2.536   7.518   4.979
   75DSPC   C1A 1041   3.189   7.400   5.127
   75DSPC   C2A 1042   3.405   7.011   4.833
   75DSPC   C3A 1043   3.495   6.601   4.859
   75DSPC   C4A 1044   3.206   6.277   4.607
   75DSPC   C5A 1045   2.962   6.091   4.397
   75DSPC   C1B 1046   2.479   7.240   4.634
   75DSPC   C2B 1047   2.501   6.891   4.275
   75DSPC   C3B 1048   2.554   6.734   3.818
   75DSPC   C4B 1049   2.385   6.366   3.679
   75DSPC   C5B 1050   2.121   6.095   3.320
   76DSPC   NC3 1051   5.095  -0.562   1.381
   76DSPC   PO4 1052   5.070  -0.268   1.006
   76DSPC   GL1 1053   4.855   0.078   0.882
   76DSPC   GL2 1054   4.589   0.120   1.033
   76DSPC   C1A 1055   4.725   0.011   0.376
   76DSPC   C2A 1056   4.306   0.095   0.058
   76DSPC   C3A 1057   4.003  -0.122  -0.138
   76DSPC   C4A 1058   3.537  -0.101   0.048
   76DSPC   C5A 1059   3.218  -0.042   0.228
   76DSPC   C1B 1060   4.169   0.271   1.006
   76DSPC   C2B 1061   3.703   0.407   0.883
   76DSPC   C3B 1062   3.353   0.728   0.780
   76DSPC   C4B 1063   2.937   0.644   0.840
   76DSPC   C5B 1064   2.466   0.787   1.014
   77DSPC   NC3 1065   1.067  -0.348   4.213
   77DSPC   PO4 1066   1.433  -0.051   4.285
   77DSPC   GL1 1067   1.626   0.275   4.092
   77DSPC   GL2 1068   1.572   0.290   3.788
   77DSPC   C1A 1069   2.146   0.204   4.143
   77DSPC   C2A 1070   2.586   0.254   3.847
   77DSPC   C3A 1071   2.867   0.013   3.647
   77DSPC   C4A 1072   2.846  -0.013   3.146
   77DSPC   C5A 1073   2.782   0.013   2.781
   77DSPC   C1B 1074   1.739   0.401   3.389
   77DSPC   C2B 1075   2.011   0.495   2.979
   77DSPC   C3B 1076   2.229   0.783   2.654
   77DSPC   C4B 1077   2.308   0.659   2.251
   77DSPC   C5B 1078   2.301   0.754   1.738
   78DSPC   NC3 1079   0.942   1.478   6.233
   78DSPC   PO4 1080   0.979   1.090   6.508
   78DSPC   GL1 1081   1.206   0.731   6.529
   78DSPC   GL2 1082   1.335   0.649   6.261
   78DSPC   C1A 1083   0.875   0.341   6.655
   78DSPC   C2A 1084   0.784  -0.166   6.515
   78DSPC   C3A 1085   0.507  -0.393   6.295
   78DSPC   C4A 1086   0.646  -0.567   5.844
   78DSPC   C5A 1087   0.807  -0.668   5.526
   78DSPC   C1B 1088   1.462   0.309   6.001
   78DSPC   C2B 1089   1.525  -0.119   5.746
   78DSPC   C3B 1090   1.748  -0.537   5.641
   78DSPC   C4B 1091   1.727  -0.719   5.254
   78DSPC   C5B 1092   1.961  -0.954   4.850
   79DSPC   NC3 1093   4.655   2.539   3.368
   79DSPC   PO4 1094   4.785   2.634   2.919
   79DSPC   GL1 1095   4.649   2.561   2.523
   79DSPC   GL2 1096   4.455   2.322   2.500
   79DSPC   C1A 1097   5.069   2.434   2.232
   79DSPC   C2A 1098   5.200   2.084   1.852
   79DSPC   C3A 1099   5.424   1.731   1.804
   79DSPC   C4A 1100   5.177   1.297   1.755
   79DSPC   C5A 1101   4.940   1.013   1.721
   79DSPC   C1B 1102   4.313   1.985   2.242
   79DSPC   C2B 1103   4.249   1.602   1.925
   79DSPC   C3B 1104   4.086   1.394   1.518
   79DSPC   C4B 1105   4.008   0.973   1.489
   79DSPC   C5B 1106   3.701   0.578   1.342
   80DSPC   NC3 1107   6.898   6.268   3.241
   80DSPC   PO4 1108   6.549   5.944   3.265
   80DSPC   GL1 1109   6.198   5.866   3.491
   80DSPC   GL2 1110   6.191   6.009   3.765
   80DSPC   C1A 1111   6.187   5.350   3.596
   80DSPC   C2A 1112   6.071   5.028   4.005
   80DSPC   C3A 1113   6.266   4.786   4.288
   80DSPC   C4A 1114   6.295   4.950   4.763
   80DSPC   C5A 1115   6.279   5.121   5.092
   80DSPC   C1B 1116   6.055   5.985   4.190
   80DSPC   C2B 1117   5.921   5.862   4.657
   80DSPC   C3B 1118   5.602   5.794   5.018
   80DSPC   C4B 1119   5.713   5.820   5.431
   80DSPC   C5B 1120   5.620   5.991   5.915
   81DSPC   NC3 1121   6.292   1.156  -0.469
   81DSPC   PO4 1122   6.313   1.193   0.006
   81DSPC   GL1 1123   6.052   1.251   0.336
   81DSPC   GL2 1124   5.781   1.378   0.260
   81DSPC   C1A 1125   6.285   1.591   0.664
   81DSPC   C2A 1126   6.151   2.011   0.964
   81DSPC   C3A 1127   6.192   2.430   0.966
   81DSPC   C4A 1128   5.790   2.710   0.855
   81DSPC   C5A 1129   5.461   2.859   0.769
   81DSPC   C1B 1130   5.450   1.648   0.392
   81DSPC   C2B 1131   5.152   2.001   0.585
   81DSPC   C3B 1132   4.809   2.168   0.886
   81DSPC   C4B 1133   4.567   2.509   0.794
   81DSPC   C5B 1134   4.099   2.741   0.774
   82DSPC   NC3 1135   1.543   1.200   6.290
   82DSPC   PO4 1136   1.548   1.484   5.907
   82DSPC   GL1 1137   1.719   1.496   5.517
   82DSPC   GL2 1138   1.967   1.315   5.484
   82DSPC   C1A 1139   1.886   1.988   5.432
   82DSPC   C2A 1140   2.306   2.235   5.217
   82DSPC   C3A 1141   2.648   2.450   5.336
   82DSPC   C4A 1142   3.095   2.223   5.308
   82DSPC   C5A 1143   3.391   2.004   5.260
   82DSPC   C1B 1144   2.362   1.264   5.281
   82DSPC   C2B 1145   2.810   1.305   5.062
   82DSPC   C3B 1146   3.117   1.291   4.685
   82DSPC   C4B 1147   3.536   1.216   4.731
   82DSPC   C5B 1148   3.971   0.968   4.583
   83DSPC   NC3 1149   2.021   4.733   0.056
   83DSPC   PO4 1150   2.413   4.905  -0.154
   83DSPC   GL1 1151   2.827   4.812  -0.188
   83DSPC   GL2 1152   2.932   4.628   0.037
   83DSPC   C1A 1153   3.095   5.263  -0.143
   83DSPC   C2A 1154   3.538   5.442   0.094
   83DSPC   C3A 1155   3.653   5.680   0.421
   83DSPC   C4A 1156   3.839   5.452   0.828
   83DSPC   C5A 1157   3.971   5.228   1.093
   83DSPC   C1B 1158   3.282   4.523   0.294
   83DSPC   C2B 1159   3.694   4.503   0.580
   83DSPC   C3B 1160   4.156   4.387   0.674
   83DSPC   C4B 1161   4.302   4.326   1.072
   83DSPC   C5B 1162   4.579   4.046   1.415
   84DSPC   NC3 1163   3.240   0.880   5.325
   84DSPC   PO4 1164   3.641   0.805   5.078
   84DSPC   GL1 1165   4.057   0.882   5.111
   84DSPC   GL2 1166   4.127   1.111   5.306
   84DSPC   C1A 1167   4.227   1.039   4.638
   84DSPC   C2A 1168   4.555   1.406   4.433
   84DSPC   C3A 1169   4.538   1.771   4.224
   84DSPC   C4A 1170   4.642   2.194   4.475
   84DSPC   C5A 1171   4.733   2.466   4.712
   84DSPC   C1B 1172   4.407   1.448   5.395
   84DSPC   C2B 1173   4.725   1.836   5.396
   84DSPC   C3B 1174   5.157   2.048   5.461
   84DSPC   C4B 1175   5.199   2.464   5.552
   84DSPC   C5B 1176   5.415   2.847   5.833
   85DSPC   NC3 1177   3.482   5.758   3.178
   85DSPC   PO4 1178   3.803   6.026   3.407
   85DSPC   GL1 1179   3.848   6.226   3.779
   85DSPC   GL2 1180   3.581   6.283   3.923
   85DSPC   C1A 1181   4.063   6.696   3.682
   85DSPC   C2A 1182   4.008   7.201   3.843
   85DSPC   C3A 1183   3.854   7.568   3.704
   85DSPC   C4A 1184   3.420   7.732   3.895
   85DSPC   C5A 1185   3.102   7.800   4.075
   85DSPC   C1B 1186   3.358   6.564   4.191
   85DSPC   C2B 1187   3.161   6.948   4.444
   85DSPC   C3B 1188   3.091   7.224   4.838
   85DSPC   C4B 1189   2.737   7.459   4.895
   85DSPC   C5B 1190   2.347   7.624   5.200
   86DSPC   NC3 1191   6.510   0.687   3.564
   86DSPC   PO4 1192   6.467   0.750   3.093
   86DSPC   GL1 1193   6.655   0.966   2.779
   86DSPC   GL2 1194   6.821   1.208   2.875
   86DSPC   C1A 1195   6.275   1.164   2.472
   86DSPC   C2A 1196   6.166   1.617   2.215
   86DSPC   C3A 1197   5.912   1.952   2.246
   86DSPC   C4A 1198   6.110   2.388   2.396
   86DSPC   C5A 1199   6.314   2.678   2.506
   86DSPC   C1B 1200   6.960   1.622   2.779
   86DSPC   C2B 1201   7.028   2.095   2.628
   86DSPC   C3B 1202   7.229   2.443   2.355
   86DSPC   C4B 1203   7.259   2.850   2.486
   86DSPC   C5B 1204   7.537   3.288   2.543
   87DSPC   NC3 1205   3.244   2.709   7.660
   87DSPC   PO4 1206   3.082   2.514   7.256
   87DSPC   GL1 1207   2.721   2.358   7.096
   87DSPC   GL2 1208   2.515   2.275   7.311
   87DSPC   C1A 1209   2.840   1.919   6.832
   87DSPC   C2A 1210   2.643   1.427   6.765
   87DSPC   C3A 1211   2.723   1.031   6.882
   87DSPC   C4A 1212   2.426   0.821   7.230
   87DSPC   C5A 1213   2.173   0.723   7.483
   87DSPC   C1B 1214   2.188   1.990   7.418
   87DSPC   C2B 1215   1.875   1.604   7.486
   87DSPC   C3B 1216   1.461   1.359   7.420
   87DSPC   C4B 1217   1.310   1.079   7.707
   87DSPC   C5B 1218   0.913   0.887   7.986
   88DSPC   NC3 1219   8.493   6.623   1.320
   88DSPC   PO4 1220   8.393   6.406   0.907
   88DSPC   GL1 1221   8.154   6.468   0.561
   88DSPC   GL2 1222   7.922   6.667   0.603
   88DSPC   C1A 1223   7.930   6.008   0.438
   88DSPC   C2A 1224   7.456   5.827   0.274
   88DSPC   C3A 1225   7.123   5.617   0.423
   88DSPC   C4A 1226   6.702   5.874   0.516
   88DSPC   C5A 1227   6.423   6.115   0.559
   88DSPC   C1B 1228   7.504   6.776   0.490
   88DSPC   C2B 1229   7.021   6.799   0.358
   88DSPC   C3B 1230   6.654   6.894   0.054
   88DSPC   C4B 1231   6.259   6.987   0.191
   88DSPC   C5B 1232   5.829   7.283   0.168
   89DSPC   NC3 1233   2.267   5.423   5.282
   89DSPC   PO4 1234   2.300   5.792   4.981
   89DSPC   GL1 1235   2.384   6.208   4.991
   89DSPC   GL2 1236   2.344   6.338   5.269
   89DSPC   C1A 1237   2.042   6.447   4.669
   89DSPC   C2A 1238   1.742   6.887   4.662
   89DSPC   C3A 1239   1.339   7.002   4.701
   89DSPC   C4A 1240   1.194   7.224   5.127
   89DSPC   C5A 1241   1.151   7.384   5.460
   89DSPC   C1B 1242   2.223   6.706   5.490
   89DSPC   C2B 1243   2.023   7.132   5.664
   89DSPC   C3B 1244   2.028   7.605   5.773
   89DSPC   C4B 1245   1.777   7.775   6.075
   89DSPC   C5B 1246   1.712   8.088   6.489
   90DSPC   NC3 1247  -0.001   7.763   2.947
   90DSPC   PO4 1248   0.225   7.691   2.533
   90DSPC   GL1 1249   0.206   7.432   2.197
   90DSPC   GL2 1250   0.057   7.167   2.252
   90DSPC   C1A 1251   0.700   7.298   2.072
   90DSPC   C2A 1252   0.969   6.863   1.921
   90DSPC   C3A 1253   1.243   6.585   2.078
   90DSPC   C4A 1254   1.076   6.124   2.191
   90DSPC   C5A 1255   0.895   5.805   2.250
   90DSPC   C1B 1256   0.033   6.731   2.157
   90DSPC   C2B 1257   0.103   6.248   2.042
   90DSPC   C3B 1258   0.078   5.858   1.754
   90DSPC   C4B 1259   0.068   5.458   1.907
   90DSPC   C5B 1260  -0.137   4.977   1.906
   91DSPC   NC3 1261   5.271   5.331   0.132
   91DSPC   PO4 1262   5.223   5.806   0.123
   91DSPC   GL1 1263   5.230   6.135   0.392
   91DSPC   GL2 1264   5.182   6.056   0.687
   91DSPC   C1A 1265   4.835   6.457   0.261
   91DSPC   C2A 1266   4.461   6.749   0.503
   91DSPC   C3A 1267   4.046   6.744   0.575
   91DSPC   C4A 1268   3.885   6.627   1.036
   91DSPC   C5A 1269   3.831   6.538   1.393
   91DSPC   C1B 1270   5.007   6.183   1.078
   91DSPC   C2B 1271   4.743   6.369   1.462
   91DSPC   C3B 1272   4.668   6.667   1.838
   91DSPC   C4B 1273   4.406   6.568   2.162
   91DSPC   C5B 1274   4.308   6.543   2.674
   92DSPC   NC3 1275   1.224   3.287   7.699
   92DSPC   PO4 1276   0.868   2.973   7.742
   92DSPC   GL1 1277   0.796   2.557   7.685
   92DSPC   GL2 1278   0.999   2.420   7.497
   92DSPC   C1A 1279   0.326   2.507   7.454
   92DSPC   C2A 1280   0.101   2.217   7.067
   92DSPC   C3A 1281  -0.033   2.260   6.670
   92DSPC   C4A 1282   0.244   2.059   6.302
   92DSPC   C5A 1283   0.487   1.888   6.080
   92DSPC   C1B 1284   1.061   2.101   7.191
   92DSPC   C2B 1285   1.037   1.765   6.820
   92DSPC   C3B 1286   1.014   1.315   6.637
   92DSPC   C4B 1287   1.156   1.218   6.244
   92DSPC   C5B 1288   1.424   0.905   5.924
   93DSPC   NC3 1289   3.246   8.341   3.725
   93DSPC   PO4 1290   3.129   8.129   4.136
   93DSPC   GL1 1291   3.319   7.949   4.471
   93DSPC   GL2 1292   3.609   7.858   4.416
   93DSPC   C1A 1293   3.051   7.512   4.590
   93DSPC   C2A 1294   3.153   7.009   4.736
   93DSPC   C3A 1295   3.145   6.620   4.575
   93DSPC   C4A 1296   3.582   6.401   4.460
   93DSPC   C5A 1297   3.933   6.293   4.401
   93DSPC   C1B 1298   3.926   7.557   4.509
   93DSPC   C2B 1299   4.205   7.156   4.620
   93DSPC   C3B 1300   4.490   6.885   4.906
   93DSPC   C4B 1301   4.772   6.604   4.751
   93DSPC   C5B 1302   5.251   6.394   4.751
   94DSPC   NC3 1303   4.891   6.880   5.535
   94DSPC   PO4 1304   5.075   6.908   5.974
   94DSPC   GL1 1305   5.259   6.656   6.262
   94DSPC   GL2 1306   5.200   6.356   6.222
   94DSPC   C1A 1307   5.059   6.781   6.733
   94DSPC   C2A 1308   4.889   6.532   7.173
   94DSPC   C3A 1309   4.529   6.438   7.370
   94DSPC   C4A 1310   4.365   5.963   7.352
   94DSPC   C5A 1311   4.301   5.600   7.306
   94DSPC   C1B 1312   5.136   5.962   6.423
   94DSPC   C2B 1313   5.022   5.574   6.719
   94DSPC   C3B 1314   5.126   5.208   7.022
   94DSPC   C4B 1315   4.872   4.866   7.066
   94DSPC   C5B 1316   4.810   4.349   7.100
   95DSPC   NC3 1317   2.964   3.458   5.478
   95DSPC   PO4 1318   3.093   3.580   5.921
   95DSPC   GL1 1319   3.183   3.931   6.144
   95DSPC   GL2 1320   3.263   4.173   5.969
   95DSPC   C1A 1321   3.604   3.824   6.443
   95DSPC   C2A 1322   4.056   4.062   6.595
   95DSPC   C3A 1323   4.469   4.045   6.518
   95DSPC   C4A 1324   4.676   4.409   6.240
   95DSPC   C5A 1325   4.768   4.705   6.036
   95DSPC   C1B 1326   3.514   4.541   5.941
   95DSPC   C2B 1327   3.862   4.901   5.962
   95DSPC   C3B 1328   4.045   5.326   6.111
   95DSPC   C4B 1329   4.332   5.547   5.883
   95DSPC   C5B 1330   4.502   5.998   5.683
   96DSPC   NC3 1331   8.486   2.694   2.841
   96DSPC   PO4 1332   8.118   2.795   3.128
   96DSPC   GL1 1333   7.923   2.634   3.470
   96DSPC   GL2 1334   7.975   2.333   3.513
   96DSPC   C1A 1335   7.404   2.681   3.393
   96DSPC   C2A 1336   6.962   2.392   3.467
   96DSPC   C3A 1337   6.681   2.172   3.244
   96DSPC   C4A 1338   6.700   1.671   3.265
   96DSPC   C5A 1339   6.762   1.309   3.325
   96DSPC   C1B 1340   7.807   1.946   3.660
   96DSPC   C2B 1341   7.532   1.547   3.790
   96DSPC   C3B 1342   7.312   1.251   4.106
   96DSPC   C4B 1343   7.231   0.840   4.019
   96DSPC   C5B 1344   7.235   0.337   4.162
   97DSPC   NC3 1345   7.696   3.712   6.000
   97DSPC   PO4 1346   7.281   3.910   6.127
   97DSPC   GL1 1347   7.032   3.942   6.470
   97DSPC   GL2 1348   7.083   3.724   6.683
   97DSPC   C1A 1349   6.534   3.875   6.312
   97DSPC   C2A 1350   6.093   3.625   6.478
   97DSPC   C3A 1351   5.862   3.286   6.383
   97DSPC   C4A 1352   5.889   2.887   6.687
   97DSPC   C5A 1353   5.949   2.630   6.948
   97DSPC   C1B 1354   6.901   3.467   6.999
   97DSPC   C2B 1355   6.617   3.177   7.294
   97DSPC   C3B 1356   6.352   3.081   7.690
   97DSPC   C4B 1357   6.299   2.684   7.841
   97DSPC   C5B 1358   6.290   2.349   8.242
   98DSPC   NC3 1359   3.986   2.406   3.418
   98DSPC   PO4 1360   3.538   2.528   3.529
   98DSPC   GL1 1361   3.159   2.565   3.341
   98DSPC   GL2 1362   3.174   2.595   3.034
   98DSPC   C1A 1363   2.936   3.008   3.518
   98DSPC   C2A 1364   2.654   3.418   3.325
   98DSPC   C3A 1365   2.703   3.825   3.230
   98DSPC   C4A 1366   2.734   3.955   2.746
   98DSPC   C5A 1367   2.745   3.987   2.376
   98DSPC   C1B 1368   2.988   2.777   2.671
   98DSPC   C2B 1369   2.759   3.058   2.324
   98DSPC   C3B 1370   2.397   3.170   2.020
   98DSPC   C4B 1371   2.457   3.406   1.667
   98DSPC   C5B 1372   2.378   3.488   1.158
   99DSPC   NC3 1373   6.894   7.456   2.173
   99DSPC   PO4 1374   6.863   7.062   1.905
   99DSPC   GL1 1375   6.665   6.686   1.908
   99DSPC   GL2 1376   6.567   6.599   2.188
   99DSPC   C1A 1377   7.013   6.322   1.756
   99DSPC   C2A 1378   7.156   5.826   1.890
   99DSPC   C3A 1379   7.470   5.625   2.086
   99DSPC   C4A 1380   7.387   5.448   2.549
   99DSPC   C5A 1381   7.264   5.339   2.882
   99DSPC   C1B 1382   6.492   6.253   2.461
   99DSPC   C2B 1383   6.487   5.826   2.724
   99DSPC   C3B 1384   6.309   5.393   2.852
   99DSPC   C4B 1385   6.380   5.220   3.238
   99DSPC   C5B 1386   6.203   4.973   3.663
  100DSPC   NC3 1387  -0.936   5.188   4.626
  100DSPC   PO4 1388  -0.631   5.283   4.272
  100DSPC   GL1 1389  -0.213   5.273   4.197
  100DSPC   GL2 1390  -0.040   5.278   4.452
  100DSPC   C1A 1391  -0.090   5.711   3.930
  100DSPC   C2A 1392   0.296   6.078   3.924
  100DSPC   C3A 1393   0.360   6.479   4.038
  100DSPC   C4A 1394   0.637   6.570   4.446
  100DSPC   C5A 1395   0.851   6.571   4.750
  100DSPC   C1B 1396   0.344   5.414   4.635
  100DSPC   C2B 1397   0.764   5.645   4.782
  100DSPC   C3B 1398   1.246   5.702   4.812
  100DSPC   C4B 1399   1.434   5.911   5.134
  100DSPC   C5B 1400   1.808   5.943   5.497
  101DSPC   NC3 1401   1.489  -0.667   3.663
  101DSPC   PO4 1402   1.653  -0.226   3.588
  101DSPC   GL1 1403   1.926   0.050   3.762
  101DSPC   GL2 1404   1.990  -0.008   4.059
  101DSPC   C1A 1405   1.699   0.525   3.753
  101DSPC   C2A 1406   1.648   0.949   4.073
  101DSPC   C3A 1407   1.358   1.136   4.313
  101DSPC   C4A 1408   1.395   1.090   4.812
  101DSPC   C5A 1409   1.479   1.024   5.167
  101DSPC   C1B 1410   2.090   0.170   4.456
  101DSPC   C2B 1411   2.144   0.443   4.873
  101DSPC   C3B 1412   2.388   0.725   5.183
  101DSPC   C4B 1413   2.291   0.748   5.600
  101DSPC   C5B 1414   2.441   0.753   6.100
  102DSPC   NC3 1415   0.489   1.933   3.553
  102DSPC   PO4 1416   0.457   1.459   3.514
  102DSPC   GL1 1417   0.490   1.113   3.759
  102DSPC   GL2 1418   0.647   1.159   4.020
  102DSPC   C1A 1419   0.761   0.752   3.488
  102DSPC   C2A 1420   1.145   0.392   3.576
  102DSPC   C3A 1421   1.555   0.335   3.499
  102DSPC   C4A 1422   1.879   0.390   3.879
  102DSPC   C5A 1423   2.064   0.441   4.197
  102DSPC   C1B 1424   0.922   0.978   4.322
  102DSPC   C2B 1425   1.268   0.726   4.584
  102DSPC   C3B 1426   1.419   0.391   4.901
  102DSPC   C4B 1427   1.787   0.426   5.116
  102DSPC   C5B 1428   2.056   0.394   5.563
  103DSPC   NC3 1429   5.459   7.519   8.022
  103DSPC   PO4 1430   4.991   7.564   8.104
  103DSPC   GL1 1431   4.636   7.331   8.077
  103DSPC   GL2 1432   4.659   7.089   7.886
  103DSPC   C1A 1433   4.259   7.639   7.875
  103DSPC   C2A 1434   3.863   7.604   7.520
  103DSPC   C3A 1435   3.770   7.730   7.129
  103DSPC   C4A 1436   3.783   7.390   6.759
  103DSPC   C5A 1437   3.806   7.095   6.534
  103DSPC   C1B 1438   4.444   6.825   7.597
  103DSPC   C2B 1439   4.153   6.611   7.249
  103DSPC   C3B 1440   3.796   6.320   7.095
  103DSPC   C4B 1441   3.790   6.150   6.703
  103DSPC   C5B 1442   3.720   5.739   6.388
  104DSPC   NC3 1443   1.739  -0.268   1.835
  104DSPC   PO4 1444   1.664  -0.307   2.304
  104DSPC   GL1 1445   1.452  -0.107   2.614
  104DSPC   GL2 1446   1.379   0.185   2.547
  104DSPC   C1A 1447   1.767  -0.086   3.035
  104DSPC   C2A 1448   1.903   0.262   3.415
  104DSPC   C3A 1449   2.225   0.510   3.523
  104DSPC   C4A 1450   2.183   1.004   3.448
  104DSPC   C5A 1451   2.089   1.356   3.372
  104DSPC   C1B 1452   1.318   0.597   2.711
  104DSPC   C2B 1453   1.322   1.034   2.956
  104DSPC   C3B 1454   1.140   1.369   3.257
  104DSPC   C4B 1455   1.241   1.784   3.229
  104DSPC   C5B 1456   1.099   2.286   3.224
  105DSPC   NC3 1457   4.349   3.396   0.847
  105DSPC   PO4 1458   4.759   3.624   0.758
  105DSPC   GL1 1459   4.976   3.961   0.899
  105DSPC   GL2 1460   4.803   4.167   1.049
  105DSPC   C1A 1461   5.168   4.213   0.478
  105DSPC   C2A 1462   5.230   4.714   0.307
  105DSPC   C3A 1463   5.063   4.981   0.027
  105DSPC   C4A 1464   4.768   5.350   0.197
  105DSPC   C5A 1465   4.566   5.600   0.383
  105DSPC   C1B 1466   4.741   4.600   1.142
  105DSPC   C2B 1467   4.705   5.100   1.154
  105DSPC   C3B 1468   4.835   5.545   1.299
  105DSPC   C4B 1469   4.562   5.875   1.303
  105DSPC   C5B 1470   4.356   6.290   1.544
  106DSPC   NC3 1471   4.303   3.303   4.872
  106DSPC   PO4 1472   4.480   3.360   5.312
  106DSPC   GL1 1473   4.748   3.617   5.520
  106DSPC   GL2 1474   4.945   3.767   5.336
  106DSPC   C1A 1475   5.044   3.315   5.834
  106DSPC   C2A 1476   5.553   3.277   5.986
  106DSPC   C3A 1477   5.890   3.034   5.921
  106DSPC   C4A 1478   6.260   3.211   5.631
  106DSPC   C5A 1479   6.498   3.397   5.415
  106DSPC   C1B 1480   5.356   3.937   5.296
  106DSPC   C2B 1481   5.844   4.051   5.308
  106DSPC   C3B 1482   6.230   4.315   5.441
  106DSPC   C4B 1483   6.590   4.331   5.209
  106DSPC   C5B 1484   6.977   4.606   4.992
  107DSPC   NC3 1485  -0.324   6.479   1.303
  107DSPC   PO4 1486   0.092   6.691   1.397
  107DSPC   GL1 1487   0.436   6.632   1.640
  107DSPC   GL2 1488   0.389   6.443   1.880
  107DSPC   C1A 1489   0.568   7.098   1.846
  107DSPC   C2A 1490   0.733   7.295   2.313
  107DSPC   C3A 1491   0.586   7.521   2.636
  107DSPC   C4A 1492   0.486   7.284   3.067
  107DSPC   C5A 1493   0.436   7.055   3.356
  107DSPC   C1B 1494   0.497   6.350   2.303
  107DSPC   C2B 1495   0.626   6.343   2.788
  107DSPC   C3B 1496   0.926   6.257   3.160
  107DSPC   C4B 1497   0.786   6.184   3.557
  107DSPC   C5B 1498   0.800   5.906   3.999
  108DSPC   NC3 1499   6.119   3.592  -0.234
  108DSPC   PO4 1500   6.225   3.480   0.217
  108DSPC   GL1 1501   6.402   3.659   0.559
  108DSPC   GL2 1502   6.582   3.902   0.495
  108DSPC   C1A 1503   6.718   3.300   0.780
  108DSPC   C2A 1504   7.202   3.277   1.004
  108DSPC   C3A 1505   7.589   3.139   0.917
  108DSPC   C4A 1506   7.943   3.478   0.803
  108DSPC   C5A 1507   8.157   3.772   0.732
  108DSPC   C1B 1508   6.947   4.132   0.611
  108DSPC   C2B 1509   7.393   4.301   0.765
  108DSPC   C3B 1510   7.691   4.538   1.068
  108DSPC   C4B 1511   8.063   4.706   0.940
  108DSPC   C5B 1512   8.403   5.102   0.933
  109DSPC   NC3 1513   0.139   4.147   3.756
  109DSPC   PO4 1514   0.126   4.381   3.340
  109DSPC   GL1 1515   0.393   4.516   3.039
  109DSPC   GL2 1516   0.686   4.542   3.133
  109DSPC   C1A 1517   0.242   5.001   2.899
  109DSPC   C2A 1518   0.467   5.471   2.784
  109DSPC   C3A 1519   0.521   5.852   2.955
  109DSPC   C4A 1520   0.976   5.971   3.132
  109DSPC   C5A 1521   1.330   6.001   3.239
  109DSPC   C1B 1522   1.069   4.768   3.092
  109DSPC   C2B 1523   1.439   5.100   3.031
  109DSPC   C3B 1524   1.810   5.304   2.792
  109DSPC   C4B 1525   2.123   5.518   2.991
  109DSPC   C5B 1526   2.631   5.620   3.059
  110DSPC   NC3 1527   0.426   3.979   5.475
  110DSPC   PO4 1528   0.587   4.072   5.036
  110DSPC   GL1 1529   0.708   3.863   4.686
  110DSPC   GL2 1530   0.789   3.570   4.738
  110DSPC   C1A 1531   1.140   4.101   4.501
  110DSPC   C2A 1532   1.612   3.966   4.293
  110DSPC   C3A 1533   2.019   3.954   4.400
  110DSPC   C4A 1534   2.226   3.508   4.498
  110DSPC   C5A 1535   2.321   3.153   4.554
  110DSPC   C1B 1536   1.057   3.233   4.616
  110DSPC   C2B 1537   1.423   2.928   4.462
  110DSPC   C3B 1538   1.635   2.620   4.151
  110DSPC   C4B 1539   1.919   2.325   4.277
  110DSPC   C5B 1540   2.100   1.835   4.264
  111DSPC   NC3 1541   3.917   1.721   7.891
  111DSPC   PO4 1542   3.658   2.110   7.989
  111DSPC   GL1 1543   3.509   2.455   7.790
  111DSPC   GL2 1544   3.661   2.525   7.531
  111DSPC   C1A 1545   3.578   2.866   8.113
  111DSPC   C2A 1546   3.734   3.375   8.084
  111DSPC   C3A 1547   4.065   3.615   8.181
  111DSPC   C4A 1548   4.362   3.773   7.809
  111DSPC   C5A 1549   4.538   3.861   7.494
  111DSPC   C1B 1550   3.802   2.854   7.263
  111DSPC   C2B 1551   3.972   3.273   7.047
  111DSPC   C3B 1552   3.929   3.677   6.779
  111DSPC   C4B 1553   4.261   3.854   6.574
  111DSPC   C5B 1554   4.465   4.069   6.145
  112DSPC   NC3 1555   8.358   3.071   2.109
  112DSPC   PO4 1556   8.110   2.941   1.723
  112DSPC   GL1 1557   7.748   3.041   1.525
  112DSPC   GL2 1558   7.543   3.186   1.704
  112DSPC   C1A 1559   7.518   2.591   1.375
  112DSPC   C2A 1560   7.030   2.379   1.361
  112DSPC   C3A 1561   6.799   2.090   1.562
  112DSPC   C4A 1562   6.438   2.248   1.874
  112DSPC   C5A 1563   6.189   2.426   2.084
  112DSPC   C1B 1564   7.109   3.249   1.793
  112DSPC   C2B 1565   6.614   3.224   1.865
  112DSPC   C3B 1566   6.150   3.326   1.762
  112DSPC   C4B 1567   5.841   3.321   2.058
  112DSPC   C5B 1568   5.423   3.541   2.281
  113DSPC   NC3 1569   4.169   3.639   5.618
  113DSPC   PO4 1570   4.618   3.791   5.565
  113DSPC   GL1 1571   4.833   4.156   5.537
  113DSPC   GL2 1572   4.658   4.398   5.455
  113DSPC   C1A 1573   5.192   4.101   5.156
  113DSPC   C2A 1574   5.392   4.386   4.752
  113DSPC   C3A 1575   5.374   4.404   4.332
  113DSPC   C4A 1576   5.109   4.774   4.120
  113DSPC   C5A 1577   4.904   5.069   4.025
  113DSPC   C1B 1578   4.646   4.786   5.235
  113DSPC   C2B 1579   4.695   5.178   4.925
  113DSPC   C3B 1580   4.846   5.623   4.803
  113DSPC   C4B 1581   4.648   5.860   4.506
  113DSPC   C5B 1582   4.450   6.317   4.349
  114DSPC   NC3 1583   2.307   1.441   3.009
  114DSPC   PO4 1584   2.370   1.847   3.252
  114DSPC   GL1 1585   2.460   2.255   3.177
  114DSPC   GL2 1586   2.596   2.305   2.904
  114DSPC   C1A 1587   2.807   2.411   3.541
  114DSPC   C2A 1588   3.251   2.705   3.569
  114DSPC   C3A 1589   3.667   2.657   3.613
  114DSPC   C4A 1590   3.958   2.725   3.210
  114DSPC   C5A 1591   4.118   2.792   2.881
  114DSPC   C1B 1592   2.889   2.556   2.677
  114DSPC   C2B 1593   3.267   2.839   2.509
  114DSPC   C3B 1594   3.468   3.251   2.350
  114DSPC   C4B 1595   3.814   3.257   2.098
  114DSPC   C5B 1596   4.066   3.440   1.679
  115DSPC   NC3 1597   0.359   3.560   1.994
  115DSPC   PO4 1598   0.165   3.680   1.575
  115DSPC   GL1 1599   0.264   3.905   1.228
  115DSPC   GL2 1600   0.488   4.113   1.273
  115DSPC   C1A 1601  -0.164   4.181   1.091
  115DSPC   C2A 1602  -0.284   4.670   0.918
  115DSPC   C3A 1603  -0.456   5.028   1.059
  115DSPC   C4A 1604  -0.153   5.417   1.153
  115DSPC   C5A 1605   0.118   5.666   1.200
  115DSPC   C1B 1606   0.647   4.514   1.158
  115DSPC   C2B 1607   0.731   4.989   1.022
  115DSPC   C3B 1608   0.876   5.338   0.716
  115DSPC   C4B 1609   1.012   5.721   0.851
  115DSPC   C5B 1610   1.356   6.113   0.831
  116DSPC   NC3 1611   4.700   6.174   7.501
  116DSPC   PO4 1612   5.048   6.056   7.197
  116DSPC   GL1 1613   5.123   5.772   6.889
  116DSPC   GL2 1614   4.942   5.522   6.902
  116DSPC   C1A 1615   5.616   5.598   6.951
  116DSPC   C2A 1616   5.882   5.136   6.926
  116DSPC   C3A 1617   6.059   4.854   7.183
  116DSPC   C4A 1618   5.824   4.416   7.254
  116DSPC   C5A 1619   5.607   4.114   7.262
  116DSPC   C1B 1620   4.914   5.083   6.826
  116DSPC   C2B 1621   4.977   4.589   6.768
  116DSPC   C3B 1622   5.019   4.180   6.510
  116DSPC   C4B 1623   4.921   3.795   6.669
  116DSPC   C5B 1624   4.689   3.330   6.621
  117DSPC   NC3 1625   1.331   5.085   7.000
  117DSPC   PO4 1626   1.347   4.841   6.590
  117DSPC   GL1 1627   1.357   4.916   6.172
  117DSPC   GL2 1628   1.252   5.195   6.093
  117DSPC   C1A 1629   1.034   4.569   5.942
  117DSPC   C2A 1630   0.668   4.562   5.554
  117DSPC   C3A 1631   0.251   4.542   5.507
  117DSPC   C4A 1632   0.005   4.959   5.374
  117DSPC   C5A 1633  -0.116   5.295   5.273
  117DSPC   C1B 1634   1.037   5.434   5.782
  117DSPC   C2B 1635   0.743   5.620   5.421
  117DSPC   C3B 1636   0.650   5.784   4.974
  117DSPC   C4B 1637   0.329   6.055   4.890
  117DSPC   C5B 1638   0.149   6.485   4.654
  118DSPC   NC3 1639   2.431   5.802   2.827
  118DSPC   PO4 1640   2.801   5.501   2.846
  118DSPC   GL1 1641   2.971   5.185   2.619
  118DSPC   GL2 1642   2.774   5.054   2.421
  118DSPC   C1A 1643   3.114   4.806   2.955
  118DSPC   C2A 1644   3.098   4.274   2.986
  118DSPC   C3A 1645   2.887   3.970   3.187
  118DSPC   C4A 1646   2.547   3.706   2.929
  118DSPC   C5A 1647   2.315   3.546   2.686
  118DSPC   C1B 1648   2.653   4.675   2.217
  118DSPC   C2B 1649   2.546   4.207   2.073
  118DSPC   C3B 1650   2.614   3.802   1.814
  118DSPC   C4B 1651   2.296   3.528   1.726
  118DSPC   C5B 1652   2.038   3.226   1.386
  119DSPC   NC3 1653   6.788   4.912   5.405
  119DSPC   PO4 1654   6.675   4.566   5.713
  119DSPC   GL1 1655   6.813   4.181   5.828
  119DSPC   GL2 1656   6.988   4.042   5.615
  119DSPC   C1A 1657   6.390   3.873   5.890
  119DSPC   C2A 1658   6.239   3.374   5.777
  119DSPC   C3A 1659   5.989   3.168   5.509
  119DSPC   C4A 1660   6.202   2.912   5.132
  119DSPC   C5A 1661   6.417   2.742   4.882
  119DSPC   C1B 1662   7.108   3.652   5.432
  119DSPC   C2B 1663   7.148   3.189   5.244
  119DSPC   C3B 1664   7.303   2.729   5.244
  119DSPC   C4B 1665   7.347   2.501   4.884
  119DSPC   C5B 1666   7.625   2.176   4.584
  120DSPC   NC3 1667   1.990   5.934   6.900
  120DSPC   PO4 1668   1.930   5.709   6.484
  120DSPC   GL1 1669   1.692   5.739   6.134
  120DSPC   GL2 1670   1.431   5.900   6.173
  120DSPC   C1A 1671   1.541   5.252   6.002
  120DSPC   C2A 1672   1.103   5.002   5.828
  120DSPC   C3A 1673   0.804   4.743   5.970
  120DSPC   C4A 1674   0.346   4.932   6.057
  120DSPC   C5A 1675   0.034   5.128   6.097
  120DSPC   C1B 1676   1.003   5.945   6.053
  120DSPC   C2B 1677   0.524   5.897   5.913
  120DSPC   C3B 1678   0.153   5.939   5.602
  120DSPC   C4B 1679  -0.254   5.969   5.733
  120DSPC   C5B 1680  -0.723   6.197   5.704
  121DSPC   NC3 1681   2.053   3.528   3.962
  121DSPC   PO4 1682   1.967   3.269   4.353
  121DSPC   GL1 1683   2.160   3.159   4.715
  121DSPC   GL2 1684   2.468   3.187   4.706
  121DSPC   C1A 1685   2.064   2.648   4.799
  121DSPC   C2A 1686   2.326   2.214   4.964
  121DSPC   C3A 1687   2.490   1.859   4.809
  121DSPC   C4A 1688   2.989   1.826   4.765
  121DSPC   C5A 1689   3.359   1.861   4.762
  121DSPC   C1B 1690   2.858   3.023   4.850
  121DSPC   C2B 1691   3.249   2.752   5.007
  121DSPC   C3B 1692   3.570   2.596   5.337
  121DSPC   C4B 1693   3.957   2.449   5.230
  121DSPC   C5B 1694   4.474   2.435   5.306
  122DSPC   NC3 1695   6.439   0.652   4.178
  122DSPC   PO4 1696   6.668   1.052   4.299
  122DSPC   GL1 1697   7.020   1.171   4.507
  122DSPC   GL2 1698   7.130   0.956   4.699
  122DSPC   C1A 1699   6.895   1.584   4.808
  122DSPC   C2A 1700   6.994   1.764   5.300
  122DSPC   C3A 1701   6.802   1.804   5.672
  122DSPC   C4A 1702   6.929   1.489   6.042
  122DSPC   C5A 1703   7.069   1.233   6.272
  122DSPC   C1B 1704   7.342   0.879   5.085
  122DSPC   C2B 1705   7.531   0.874   5.549
  122DSPC   C3B 1706   7.885   0.925   5.879
  122DSPC   C4B 1707   7.881   0.721   6.255
  122DSPC   C5B 1708   8.126   0.440   6.621
  123DSPC   NC3 1709   5.917   2.029   1.631
  123DSPC   PO4 1710   6.178   1.741   1.907
  123DSPC   GL1 1711   6.497   1.462   1.871
  123DSPC   GL2 1712   6.533   1.350   1.585
  123DSPC   C1A 1713   6.382   1.048   2.175
  123DSPC   C2A 1714   6.411   0.516   2.153
  123DSPC   C3A 1715   6.159   0.182   2.105
  123DSPC   C4A 1716   6.163  -0.058   1.665
  123DSPC   C5A 1717   6.213  -0.194   1.322
  123DSPC   C1B 1718   6.652   0.996   1.340
  123DSPC   C2B 1719   6.746   0.547   1.138
  123DSPC   C3B 1720   7.032   0.180   0.998
  123DSPC   C4B 1721   6.924  -0.091   0.685
  123DSPC   C5B 1722   7.048  -0.355   0.252
  124DSPC   NC3 1723   1.928   3.214   1.238
  124DSPC   PO4 1724   1.872   3.312   0.775
  124DSPC   GL1 1725   2.077   3.254   0.407
  124DSPC   GL2 1726   2.379   3.199   0.439
  124DSPC   C1A 1727   2.040   3.702   0.132
  124DSPC   C2A 1728   2.351   4.009  -0.174
  124DSPC   C3A 1729   2.555   4.377  -0.157
  124DSPC   C4A 1730   3.055   4.370  -0.107
  124DSPC   C5A 1731   3.418   4.299  -0.075
  124DSPC   C1B 1732   2.785   3.252   0.261
  124DSPC   C2B 1733   3.205   3.399   0.030
  124DSPC   C3B 1734   3.542   3.382  -0.320
  124DSPC   C4B 1735   3.944   3.516  -0.260
  124DSPC   C5B 1736   4.458   3.444  -0.313
  125DSPC   NC3 1737   1.337   3.028   0.830
  125DSPC   PO4 1738   1.559   3.451   0.831
  125DSPC   GL1 1739   1.933   3.617   0.946
  125DSPC   GL2 1740   2.088   3.447   1.152
  125DSPC   C1A 1741   1.836   4.078   1.183
  125DSPC   C2A 1742   2.007   4.352   1.606
  125DSPC   C3A 1743   1.880   4.458   1.993
  125DSPC   C4A 1744   2.089   4.225   2.385
  125DSPC   C5A 1745   2.283   4.023   2.630
  125DSPC   C1B 1746   2.368   3.453   1.500
  125DSPC   C2B 1747   2.635   3.544   1.914
  125DSPC   C3B 1748   3.036   3.668   2.159
  125DSPC   C4B 1749   3.110   3.540   2.560
  125DSPC   C5B 1750   3.432   3.343   2.921
  126DSPC   NC3 1751   2.081   1.975   2.264
  126DSPC   PO4 1752   2.162   2.355   1.987
  126DSPC   GL1 1753   1.943   2.634   1.752
  126DSPC   GL2 1754   1.663   2.535   1.670
  126DSPC   C1A 1755   2.209   2.707   1.304
  126DSPC   C2A 1756   2.106   2.756   0.783
  126DSPC   C3A 1757   2.140   2.534   0.426
  126DSPC   C4A 1758   1.723   2.341   0.225
  126DSPC   C5A 1759   1.383   2.229   0.126
  126DSPC   C1B 1760   1.346   2.544   1.354
  126DSPC   C2B 1761   1.068   2.557   0.938
  126DSPC   C3B 1762   0.763   2.764   0.621
  126DSPC   C4B 1763   0.505   2.535   0.366
  126DSPC   C5B 1764   0.035   2.452   0.156
  127DSPC   NC3 1765   4.807   6.371   5.306
  127DSPC   PO4 1766   4.879   6.582   5.728
  127DSPC   GL1 1767   4.659   6.688   6.076
  127DSPC   GL2 1768   4.354   6.707   6.030
  127DSPC   C1A 1769   4.813   7.171   6.219
  127DSPC   C2A 1770   4.594   7.623   6.398
  127DSPC   C3A 1771   4.501   8.010   6.261
  127DSPC   C4A 1772   4.020   8.120   6.166
  127DSPC   C5A 1773   3.652   8.140   6.118
  127DSPC   C1B 1774   3.976   6.914   6.146
  127DSPC   C2B 1775   3.609   7.226   6.285
  127DSPC   C3B 1776   3.274   7.399   6.591
  127DSPC   C4B 1777   2.926   7.610   6.458
  127DSPC   C5B 1778   2.411   7.694   6.477
  128DSPC   NC3 1779   2.102   3.693   7.426
  128DSPC   PO4 1780   2.076   3.438   7.023
  128DSPC   GL1 1781   2.137   3.038   6.891
  128DSPC   GL2 1782   2.315   2.870   7.079
  128DSPC   C1A 1783   2.391   3.060   6.431
  128DSPC   C2A 1784   2.788   2.805   6.182
  128DSPC   C3A 1785   3.191   2.865   6.076
  128DSPC   C4A 1786   3.545   2.622   6.336
  128DSPC   C5A 1787   3.756   2.413   6.559
  128DSPC   C1B 1788   2.618   2.543   7.105
  128DSPC   C2B 1789   2.990   2.212   7.048
  128DSPC   C3B 1790   3.174   1.770   6.964
  128DSPC   C4B 1791   3.559   1.649   7.107
  128DSPC   C5B 1792   3.866   1.296   7.340
   7.50000   7.50000   7.50000
