DSPC BILAYER SELF-ASSEMBLY
 2792
    1DSPC   NC3    1   5.095   1.256   5.256  0.3643  0.2527  0.2570
    1DSPC   PO4    2   4.810   1.101   5.007  0.0768 -0.0877 -0.1560
    1DSPC   GL1    3   4.305   1.006   4.850  0.0284  0.1841 -0.1695
    1DSPC   GL2    4   4.163   0.739   4.703  0.0004  0.2037  0.2220
    1DSPC   C1A    5   3.761   1.072   4.874  0.0230  0.1156  0.0792
    1DSPC   C2A    6   3.320   0.901   4.721 -0.3206 -0.0116  0.1216
    1DSPC   C3A    7   3.057   0.538   4.624  0.1069  0.3040  0.1962
    1DSPC   C4A    8   2.756   0.228   4.558 -0.1469 -0.2103  0.0930
    1DSPC   C5A    9   2.600  -0.055   4.535  0.1971  0.3928  0.0778
    1DSPC   C1B   10   3.774   0.812   4.441  0.2450  0.2103  0.1280
    1DSPC   C2B   11   3.492   0.633   4.147  0.0738  0.0846 -0.0157
    1DSPC   C3B   12   3.140   0.282   4.187 -0.0447 -0.3328 -0.0103
    1DSPC   C4B   13   3.183  -0.126   4.195  0.0857  0.2005  0.1979
    1DSPC   C5B   14   3.315  -0.557   4.186 -0.2354 -0.0130  0.0559
    2DSPC   NC3   15   4.733   2.973   0.586  0.3894  0.3583  0.4366
    2DSPC   PO4   16   4.713   2.431   0.569  0.1247  0.4184 -0.0481
    2DSPC   GL1   17   4.236   2.496   0.685 -0.3543 -0.1265 -0.0898
    2DSPC   GL2   18   4.089   2.346   0.427 -0.0095 -0.0346 -0.0330
    2DSPC   C1A   19   3.866   2.427   0.848 -0.3587 -0.0819 -0.1476
    2DSPC   C2A   20   3.425   2.265   0.945 -0.1832 -0.0721 -0.1473
    2DSPC   C3A   21   3.027   1.972   1.035 -0.0555 -0.1403  0.0364
    2DSPC   C4A   22   2.624   2.029   1.080 -0.3114  0.0786  0.0790
    2DSPC   C5A   23   2.204   2.072   1.072 -0.1900  0.0931 -0.2779
    2DSPC   C1B   24   3.623   2.438   0.426 -0.1458 -0.2359  0.3619
    2DSPC   C2B   25   3.391   2.730   0.555 -0.2074 -0.1888 -0.1520
    2DSPC   C3B   26   3.133   3.049   0.473 -0.3947  0.0325  0.1274
    2DSPC   C4B   27   2.865   3.131   0.099 -0.0892  0.0341 -0.3818
    2DSPC   C5B   28   3.008   3.302  -0.316 -0.3501 -0.1611 -0.1406
    3DSPC   NC3   29   0.060   4.624   2.332 -0.0877 -0.0235 -0.0656
    3DSPC   PO4   30  -0.213   4.289   2.374  0.1439 -0.2702  0.2006
    3DSPC   GL1   31   0.176   4.214   2.570  0.2061 -0.3216  0.2916
    3DSPC   GL2   32   0.453   4.221   2.411  0.3044  0.1767  0.0191
    3DSPC   C1A   33   0.641   4.298   2.879 -0.1665 -0.1049  0.4000
    3DSPC   C2A   34   1.125   4.164   2.766 -0.0243 -0.0747 -0.3388
    3DSPC   C3A   35   1.517   4.228   2.570 -0.1668  0.0852 -0.2335
    3DSPC   C4A   36   1.995   4.035   2.472 -0.0521  0.0574  0.1350
    3DSPC   C5A   37   2.317   3.885   2.146  0.0985  0.0822 -0.0314
    3DSPC   C1B   38   0.959   4.233   2.301 -0.1970 -0.3607  0.3209
    3DSPC   C2B   39   1.173   4.116   1.838  0.2719 -0.0635  0.0169
    3DSPC   C3B   40   1.509   4.034   1.553 -0.2209 -0.0980 -0.3569
    3DSPC   C4B   41   1.805   3.818   1.387 -0.2636 -0.2005  0.1346
    3DSPC   C5B   42   2.097   3.616   1.147 -0.2902  0.0441 -0.0261
    4DSPC   NC3   43   4.949   2.106   0.191 -0.1040 -0.2593  0.0925
    4DSPC   PO4   44   4.973   1.744  -0.016 -0.0003  0.0265  0.0525
    4DSPC   GL1   45   4.407   1.690  -0.203  0.0195  0.2709  0.2050
    4DSPC   GL2   46   4.458   1.306  -0.395 -0.3048 -0.1685  0.6176
    4DSPC   C1A   47   4.041   1.555   0.057  0.1648  0.2946  0.1377
    4DSPC   C2A   48   3.690   1.629   0.328  0.2964 -0.3467  0.4121
    4DSPC   C3A   49   3.194   1.474   0.298 -0.0971  0.1945 -0.3248
    4DSPC   C4A   50   2.667   1.506   0.338  0.2798 -0.1559 -0.1231
    4DSPC   C5A   51   2.104   1.406   0.363 -0.0134  0.0421 -0.1546
    4DSPC   C1B   52   4.065   1.454  -0.504  0.4329 -0.0770  0.3314
    4DSPC   C2B   53   3.750   1.469  -0.612  0.0172 -0.1205 -0.1448
    4DSPC   C3B   54   3.281   1.228  -0.718  0.2020 -0.0703  0.0237
    4DSPC   C4B   55   2.873   1.114  -0.969  0.0057  0.0054 -0.1259
    4DSPC   C5B   56   2.691   0.910  -1.292 -0.0193  0.0750  0.1123
    5DSPC   NC3   57   4.667   4.403   1.693  0.0507 -0.1062  0.1693
    5DSPC   PO4   58   4.989   4.467   2.079 -0.2679  0.1498  0.3534
    5DSPC   GL1   59   4.610   4.558   2.264  0.5278  0.0956 -0.1258
    5DSPC   GL2   60   4.455   4.751   2.485 -0.0147  0.1415 -0.1163
    5DSPC   C1A   61   4.132   4.472   2.260 -0.1568 -0.1043 -0.0852
    5DSPC   C2A   62   3.687   4.498   2.287  0.2387  0.2624 -0.0113
    5DSPC   C3A   63   3.432   4.758   2.456 -0.2316 -0.1887 -0.1147
    5DSPC   C4A   64   3.196   4.982   2.818  0.1098  0.0641  0.0525
    5DSPC   C5A   65   2.957   5.251   3.122 -0.1640 -0.0906 -0.2448
    5DSPC   C1B   66   4.044   4.680   2.682  0.3222  0.0509 -0.2692
    5DSPC   C2B   67   3.712   4.455   2.876 -0.0451 -0.1367 -0.0797
    5DSPC   C3B   68   3.262   4.452   2.888 -0.2389  0.2496 -0.0494
    5DSPC   C4B   69   2.996   4.257   2.964  0.2225 -0.0314  0.3592
    5DSPC   C5B   70   2.607   4.236   3.102  0.1943  0.1075  0.3389
    6DSPC   NC3   71   4.852   2.325   2.340  0.1345  0.0121  0.3022
    6DSPC   PO4   72   4.620   2.276   2.789  0.2003  0.1644  0.3910
    6DSPC   GL1   73   4.180   2.112   2.890 -0.0404 -0.1188  0.3499
    6DSPC   GL2   74   4.272   1.858   3.073 -0.0992  0.1633  0.1825
    6DSPC   C1A   75   3.769   2.169   2.916  0.0421  0.1493 -0.0702
    6DSPC   C2A   76   3.403   2.227   2.827  0.3335  0.3213 -0.2368
    6DSPC   C3A   77   3.152   2.326   3.145 -0.2102 -0.0002 -0.1574
    6DSPC   C4A   78   2.870   2.666   3.228 -0.0116  0.1008 -0.1423
    6DSPC   C5A   79   2.638   2.977   3.061 -0.0290  0.2398 -0.5127
    6DSPC   C1B   80   3.928   1.844   3.294  0.3036  0.1059 -0.0748
    6DSPC   C2B   81   3.511   1.946   3.266 -0.0157  0.2192  0.1193
    6DSPC   C3B   82   3.193   1.811   3.259 -0.1100  0.3580 -0.1506
    6DSPC   C4B   83   2.850   1.525   3.411 -0.2462  0.0212 -0.2594
    6DSPC   C5B   84   2.555   1.381   3.717 -0.1820  0.0238 -0.3055
    7DSPC   NC3   85   4.759   5.189   5.684 -0.2041  0.1480 -0.0330
    7DSPC   PO4   86   4.659   4.728   5.676  0.0479 -0.1006 -0.2222
    7DSPC   GL1   87   4.161   4.856   5.768 -0.1053  0.1445  0.0504
    7DSPC   GL2   88   4.261   5.229   5.825  0.1302  0.1606  0.0077
    7DSPC   C1A   89   3.672   4.790   5.808  0.3517 -0.3289  0.0066
    7DSPC   C2A   90   3.413   5.049   5.820  0.1338  0.0252  0.0185
    7DSPC   C3A   91   2.973   5.254   5.816 -0.0408  0.1219  0.3322
    7DSPC   C4A   92   2.573   5.404   5.805  0.1891 -0.0900  0.0591
    7DSPC   C5A   93   2.142   5.501   5.599  0.0404  0.2689 -0.2445
    7DSPC   C1B   94   3.860   5.271   5.834  0.2049  0.2118 -0.0075
    7DSPC   C2B   95   3.372   5.528   5.812 -0.4566  0.2379  0.0520
    7DSPC   C3B   96   3.097   5.726   5.523 -0.0685 -0.1322  0.0098
    7DSPC   C4B   97   2.628   5.849   5.663 -0.1409 -0.0020  0.3262
    7DSPC   C5B   98   2.540   6.247   5.606  0.4530 -0.0036  0.2945
    8DSPC   NC3   99   0.276   3.360   1.974 -0.1307 -0.1411  0.0021
    8DSPC   PO4  100   0.187   3.597   1.599 -0.0227  0.2478 -0.0378
    8DSPC   GL1  101   0.534   3.733   1.834  0.3432 -0.2429  0.2968
    8DSPC   GL2  102   0.656   3.994   1.937  0.1222  0.2003  0.0615
    8DSPC   C1A  103   1.028   3.658   1.960  0.1051  0.3010  0.0266
    8DSPC   C2A  104   1.496   3.581   1.700 -0.1511 -0.0389 -0.2880
    8DSPC   C3A  105   1.963   3.540   1.786  0.1061 -0.0254  0.2689
    8DSPC   C4A  106   2.364   3.765   1.516  0.0914  0.0507 -0.1400
    8DSPC   C5A  107   2.746   3.839   1.273 -0.3664 -0.0469 -0.0936
    8DSPC   C1B  108   0.585   3.737   2.283  0.2937  0.0319 -0.2139
    8DSPC   C2B  109   0.979   3.741   2.551  0.0263  0.1584 -0.0815
    8DSPC   C3B  110   1.447   3.787   2.768 -0.3634 -0.0579 -0.0075
    8DSPC   C4B  111   1.739   3.970   2.939  0.0065  0.3091  0.0481
    8DSPC   C5B  112   2.184   4.015   2.979 -0.0738 -0.1579 -0.1461
    9DSPC   NC3  113   4.653   2.511   4.071  0.0482 -0.2146 -0.4122
    9DSPC   PO4  114   4.776   2.409   3.580  0.3314  0.2596  0.0138
    9DSPC   GL1  115   4.310   2.410   3.712 -0.4259 -0.0865 -0.0903
    9DSPC   GL2  116   3.967   2.161   3.662  0.2653 -0.0483  0.0997
    9DSPC   C1A  117   4.047   2.656   3.753  0.0466  0.2617  0.2381
    9DSPC   C2A  118   3.864   2.851   4.123  0.3286  0.0325  0.2203
    9DSPC   C3A  119   3.407   2.982   4.222 -0.5545 -0.0785 -0.2082
    9DSPC   C4A  120   2.987   2.713   4.148 -0.1651 -0.2111  0.3712
    9DSPC   C5A  121   2.626   2.438   4.058  0.0566  0.1653  0.0900
    9DSPC   C1B  122   3.647   2.397   3.389  0.0584  0.0587  0.2270
    9DSPC   C2B  123   3.387   2.791   3.385  0.2334  0.0865 -0.0222
    9DSPC   C3B  124   3.240   3.149   3.402  0.0466 -0.0448  0.1815
    9DSPC   C4B  125   2.821   3.281   3.377 -0.0863  0.2446  0.3028
    9DSPC   C5B  126   2.711   3.609   3.148 -0.0434 -0.4089  0.1066
   10DSPC   NC3  127   0.177   7.321   0.695 -0.0225 -0.2896 -0.0939
   10DSPC   PO4  128   0.325   7.118   1.041  0.0305  0.0972  0.1251
   10DSPC   GL1  129   0.617   7.143   0.801  0.2361 -0.2248  0.4536
   10DSPC   GL2  130   0.799   6.814   0.746 -0.1574 -0.0051 -0.3774
   10DSPC   C1A  131   1.058   7.235   0.757  0.4154 -0.2078  0.1735
   10DSPC   C2A  132   1.345   7.182   0.499  0.0981 -0.0325 -0.0647
   10DSPC   C3A  133   1.674   7.323   0.178  0.0701  0.0580  0.0256
   10DSPC   C4A  134   1.965   7.399  -0.049  0.1093  0.2455 -0.0804
   10DSPC   C5A  135   2.296   7.626  -0.283  0.1435 -0.0732  0.1719
   10DSPC   C1B  136   1.027   6.830   0.336  0.1019  0.1761 -0.1857
   10DSPC   C2B  137   1.442   6.814   0.197  0.0657  0.3043 -0.2804
   10DSPC   C3B  138   1.827   6.820   0.446 -0.0615 -0.3891  0.4000
   10DSPC   C4B  139   1.976   6.554   0.810  0.0051  0.2757  0.3094
   10DSPC   C5B  140   2.320   6.569   0.938 -0.1229 -0.0071 -0.2973
   11DSPC   NC3  141   4.874   3.034   1.439 -0.2332 -0.1467 -0.0106
   11DSPC   PO4  142   4.665   3.360   1.618 -0.3235 -0.0952 -0.0578
   11DSPC   GL1  143   4.329   3.539   1.827  0.2019  0.0702 -0.2503
   11DSPC   GL2  144   4.241   3.147   1.875 -0.2028 -0.3802 -0.1466
   11DSPC   C1A  145   3.897   3.511   1.874  0.1899  0.2149 -0.0151
   11DSPC   C2A  146   3.561   3.743   2.080  0.0479 -0.2477 -0.3728
   11DSPC   C3A  147   3.194   3.752   2.241 -0.2128  0.0854 -0.2221
   11DSPC   C4A  148   2.870   3.436   2.363  0.1097  0.1016 -0.2049
   11DSPC   C5A  149   2.458   3.387   2.271  0.2259 -0.5616  0.2524
   11DSPC   C1B  150   3.910   3.020   2.071 -0.2318  0.3493  0.1258
   11DSPC   C2B  151   3.685   2.712   2.016  0.1645 -0.0097 -0.0711
   11DSPC   C3B  152   3.455   2.564   1.578 -0.2242 -0.0122 -0.1360
   11DSPC   C4B  153   3.090   2.395   1.361 -0.1894  0.1752  0.0069
   11DSPC   C5B  154   2.669   2.467   1.272 -0.2548  0.0725  0.3263
   12DSPC   NC3  155   0.498   7.296   3.905 -0.0038  0.5295 -0.1089
   12DSPC   PO4  156   0.267   7.620   3.793 -0.3458  0.0219 -0.0860
   12DSPC   GL1  157   0.742   7.624   3.633 -0.1732 -0.0869 -0.0327
   12DSPC   GL2  158   0.837   7.825   3.780 -0.0184 -0.2188 -0.1570
   12DSPC   C1A  159   0.955   7.560   3.259 -0.0489  0.1018 -0.0484
   12DSPC   C2A  160   1.426   7.512   3.085  0.0472 -0.1902 -0.3190
   12DSPC   C3A  161   1.888   7.473   3.155  0.1114  0.0806 -0.0865
   12DSPC   C4A  162   2.267   7.490   3.057 -0.0168  0.1229  0.0481
   12DSPC   C5A  163   2.524   7.840   2.864  0.2157  0.0291  0.0867
   12DSPC   C1B  164   1.165   7.588   3.690 -0.1691  0.0595  0.1040
   12DSPC   C2B  165   1.629   7.601   3.625  0.0836  0.3261  0.0748
   12DSPC   C3B  166   2.001   7.237   3.550  0.0144  0.0402 -0.1606
   12DSPC   C4B  167   2.082   6.882   3.734 -0.0868  0.2404  0.0269
   12DSPC   C5B  168   2.043   6.468   3.586 -0.0667  0.1314 -0.2153
   13DSPC   NC3  169   0.339   2.463   2.023  0.3645  0.0981  0.4116
   13DSPC   PO4  170   0.558   2.397   1.644 -0.3508  0.2554 -0.2339
   13DSPC   GL1  171   0.759   2.141   1.969  0.2667 -0.0992 -0.0061
   13DSPC   GL2  172   1.073   2.105   1.777 -0.2124  0.1792  0.3394
   13DSPC   C1A  173   1.061   1.854   2.240 -0.0206  0.3323  0.1493
   13DSPC   C2A  174   1.380   1.750   2.482 -0.0070 -0.2125  0.2140
   13DSPC   C3A  175   1.718   1.824   2.716  0.1074  0.2679 -0.3230
   13DSPC   C4A  176   2.105   1.769   2.968  0.0551 -0.0568  0.1062
   13DSPC   C5A  177   2.136   2.109   3.173 -0.0458 -0.0078  0.4818
   13DSPC   C1B  178   1.466   2.088   2.059  0.1854 -0.2830 -0.0138
   13DSPC   C2B  179   1.746   1.943   2.263 -0.0923 -0.0810  0.0410
   13DSPC   C3B  180   2.126   1.817   2.483  0.0981 -0.1779  0.2064
   13DSPC   C4B  181   2.549   2.041   2.560 -0.0730  0.2857 -0.4799
   13DSPC   C5B  182   2.550   2.383   2.297  0.1348 -0.2190  0.1683
   14DSPC   NC3  183   7.148   4.435   3.223  0.1302  0.0780 -0.0526
   14DSPC   PO4  184   7.307   4.792   3.215  0.0035  0.2148  0.0266
   14DSPC   GL1  185   7.779   4.886   3.098 -0.1378  0.0355  0.0730
   14DSPC   GL2  186   7.974   4.699   3.153  0.2666  0.0231  0.3802
   14DSPC   C1A  187   8.184   5.112   2.938  0.1263  0.0250 -0.1233
   14DSPC   C2A  188   8.643   5.181   2.962 -0.3301 -0.1534 -0.1090
   14DSPC   C3A  189   9.048   5.234   3.307 -0.1439  0.3238  0.2956
   14DSPC   C4A  190   9.430   5.205   3.405  0.2416  0.2340 -0.0552
   14DSPC   C5A  191   9.832   5.330   3.420 -0.0793  0.0361  0.0684
   14DSPC   C1B  192   8.360   4.655   2.879  0.0206 -0.0470 -0.3435
   14DSPC   C2B  193   8.594   4.721   2.507  0.1419 -0.3070 -0.0127
   14DSPC   C3B  194   8.891   4.975   2.386  0.1340  0.1890  0.1524
   14DSPC   C4B  195   9.397   4.894   2.296  0.1139  0.0216 -0.1092
   14DSPC   C5B  196   9.884   4.939   2.136  0.2344 -0.1234  0.0892
   15DSPC   NC3  197   0.477   4.353   4.977 -0.1537 -0.1515  0.1709
   15DSPC   PO4  198   0.356   4.568   5.381  0.0609  0.0603  0.0263
   15DSPC   GL1  199   0.765   4.657   5.382 -0.1821 -0.5172  0.3908
   15DSPC   GL2  200   0.888   4.441   5.266  0.1872 -0.1507  0.1721
   15DSPC   C1A  201   1.133   4.903   5.324 -0.0601  0.4561  0.2111
   15DSPC   C2A  202   1.609   4.784   5.223 -0.1388 -0.1320  0.1764
   15DSPC   C3A  203   1.957   4.759   5.337 -0.1281  0.1570  0.1702
   15DSPC   C4A  204   2.298   5.103   5.297 -0.1521 -0.1666  0.3390
   15DSPC   C5A  205   2.522   5.588   5.289 -0.2491 -0.0202 -0.0443
   15DSPC   C1B  206   1.314   4.275   5.252 -0.4612 -0.1338 -0.1257
   15DSPC   C2B  207   1.834   4.221   5.322  0.1211 -0.0341  0.4257
   15DSPC   C3B  208   2.204   4.049   5.089  0.4554 -0.1647 -0.0975
   15DSPC   C4B  209   2.348   3.893   4.697  0.3285  0.1546  0.0444
   15DSPC   C5B  210   2.356   3.722   4.313 -0.0212  0.1196 -0.1741
   16DSPC   NC3  211   0.214   5.530   4.735  0.0487  0.3823  0.2049
   16DSPC   PO4  212   0.437   5.547   4.326  0.2338 -0.1359  0.1229
   16DSPC   GL1  213   0.845   5.367   4.446 -0.1243  0.2285 -0.0630
   16DSPC   GL2  214   0.909   5.699   4.343 -0.0675  0.3437 -0.0711
   16DSPC   C1A  215   1.166   5.079   4.408 -0.0783 -0.0288 -0.2116
   16DSPC   C2A  216   1.420   4.781   4.214 -0.1827 -0.0173  0.2794
   16DSPC   C3A  217   1.860   4.721   4.297 -0.4414 -0.0335  0.1663
   16DSPC   C4A  218   2.304   4.750   4.352  0.0636  0.1299 -0.2609
   16DSPC   C5A  219   2.818   4.887   4.259  0.0010  0.1238  0.1364
   16DSPC   C1B  220   1.112   5.487   3.987  0.0127  0.2901 -0.0577
   16DSPC   C2B  221   1.577   5.498   3.722  0.2428  0.1661 -0.2124
   16DSPC   C3B  222   2.013   5.739   3.679 -0.2159 -0.0847  0.1363
   16DSPC   C4B  223   2.168   6.051   3.327 -0.0951 -0.3038 -0.0051
   16DSPC   C5B  224   2.295   6.108   2.883 -0.0188 -0.0252  0.0467
   17DSPC   NC3  225   5.098   5.194   0.896 -0.1888 -0.2073  0.1113
   17DSPC   PO4  226   4.987   5.191   0.394 -0.0610  0.0887 -0.1221
   17DSPC   GL1  227   4.521   4.999   0.302 -0.0128 -0.1131  0.0584
   17DSPC   GL2  228   4.434   4.536   0.373  0.1935  0.0848  0.0039
   17DSPC   C1A  229   4.042   4.852   0.390  0.1121 -0.1438 -0.1310
   17DSPC   C2A  230   3.774   4.484   0.438  0.1025 -0.0656  0.1851
   17DSPC   C3A  231   3.349   4.521   0.269 -0.0925  0.1608  0.6054
   17DSPC   C4A  232   3.060   4.768   0.138 -0.0283 -0.0515  0.0537
   17DSPC   C5A  233   2.704   4.453   0.074 -0.1233  0.0568  0.0341
   17DSPC   C1B  234   4.137   4.382   0.148  0.3029  0.0362  0.0761
   17DSPC   C2B  235   4.110   3.958   0.087  0.1714 -0.0149  0.2470
   17DSPC   C3B  236   3.826   3.608   0.254 -0.0639 -0.2292  0.3601
   17DSPC   C4B  237   3.320   3.655   0.582 -0.2821 -0.2216 -0.1994
   17DSPC   C5B  238   2.992   3.916   0.635  0.3985  0.2638  0.3744
   18DSPC   NC3  239   4.679   0.263   3.136 -0.0060  0.2329 -0.0570
   18DSPC   PO4  240   4.762   0.000   2.823  0.0374 -0.3173 -0.2466
   18DSPC   GL1  241   4.371  -0.056   2.909 -0.0990 -0.5487 -0.0464
   18DSPC   GL2  242   4.522  -0.213   3.216 -0.1298 -0.1230  0.1566
   18DSPC   C1A  243   4.005  -0.279   3.026  0.0972 -0.4750  0.2694
   18DSPC   C2A  244   3.546  -0.485   2.965 -0.1377  0.0700  0.2069
   18DSPC   C3A  245   3.246  -0.508   2.773  0.0766 -0.2735  0.3412
   18DSPC   C4A  246   2.812  -0.460   2.530 -0.0557 -0.1531  0.3003
   18DSPC   C5A  247   2.600  -0.626   2.202  0.1189 -0.2202  0.1625
   18DSPC   C1B  248   4.122  -0.088   3.487  0.0392  0.0038  0.0295
   18DSPC   C2B  249   3.765   0.022   3.333 -0.4627  0.2640 -0.0401
   18DSPC   C3B  250   3.300  -0.014   3.055  0.0548 -0.0875 -0.0604
   18DSPC   C4B  251   2.940  -0.010   2.811  0.2642  0.0945  0.1536
   18DSPC   C5B  252   2.498   0.064   2.572  0.0163 -0.2311  0.1850
   19DSPC   NC3  253   4.247   3.770   4.351 -0.0492 -0.1759 -0.2331
   19DSPC   PO4  254   4.695   3.751   4.416  0.0577 -0.0188 -0.0751
   19DSPC   GL1  255   4.404   3.358   4.417 -0.1993 -0.0404  0.1134
   19DSPC   GL2  256   4.292   3.350   4.070  0.0788  0.0588  0.0311
   19DSPC   C1A  257   4.303   3.224   4.796  0.1581  0.2044  0.0546
   19DSPC   C2A  258   3.831   3.080   4.873 -0.2305  0.0108 -0.3313
   19DSPC   C3A  259   3.556   2.792   4.658  0.2161 -0.3072 -0.2126
   19DSPC   C4A  260   3.368   2.521   4.379  0.0135 -0.1156 -0.1326
   19DSPC   C5A  261   3.095   2.248   4.163  0.0270  0.2452  0.1474
   19DSPC   C1B  262   3.861   3.366   4.421  0.1035  0.2883 -0.0517
   19DSPC   C2B  263   3.438   3.362   4.607  0.0177 -0.0434  0.0058
   19DSPC   C3B  264   3.049   2.989   4.673 -0.0274  0.4411  0.0896
   19DSPC   C4B  265   2.938   2.541   4.577  0.1932  0.0842  0.0051
   19DSPC   C5B  266   3.140   2.235   4.736 -0.4347  0.0073  0.1641
   20DSPC   NC3  267   4.569   1.441   0.203  0.1286  0.0110 -0.1999
   20DSPC   PO4  268   4.868   1.251   0.494 -0.2247  0.2252  0.1018
   20DSPC   GL1  269   4.478   1.279   0.637  0.4538  0.1367 -0.1842
   20DSPC   GL2  270   4.183   1.533   0.568 -0.3156 -0.0618  0.0522
   20DSPC   C1A  271   4.083   1.145   0.332  0.2490  0.1674  0.0788
   20DSPC   C2A  272   3.684   1.105   0.231  0.0280 -0.0513  0.0007
   20DSPC   C3A  273   3.283   0.998   0.268 -0.0167 -0.1340  0.0196
   20DSPC   C4A  274   2.839   1.155   0.084  0.2053  0.4464  0.2132
   20DSPC   C5A  275   2.418   1.243  -0.121 -0.1463  0.2341 -0.0798
   20DSPC   C1B  276   3.862   1.336   0.750 -0.2059 -0.0693  0.2637
   20DSPC   C2B  277   3.426   1.208   0.674  0.0664  0.2589  0.1258
   20DSPC   C3B  278   3.050   0.980   0.679  0.2345 -0.1485 -0.2270
   20DSPC   C4B  279   2.651   0.822   0.736 -0.3140  0.0953  0.1066
   20DSPC   C5B  280   2.312   0.686   0.941  0.3404 -0.0919  0.1587
   21DSPC   NC3  281   0.192   0.188   2.005  0.2447 -0.0514  0.1168
   21DSPC   PO4  282   0.319   0.409   1.600  0.1426  0.3013 -0.0410
   21DSPC   GL1  283   0.584   0.614   1.885  0.0695  0.0249 -0.2409
   21DSPC   GL2  284   0.673   0.305   1.991  0.0979  0.2288 -0.0710
   21DSPC   C1A  285   0.975   0.772   2.030 -0.1050 -0.0367 -0.0318
   21DSPC   C2A  286   1.393   0.768   2.209 -0.1003  0.3009 -0.1057
   21DSPC   C3A  287   1.742   0.634   2.285  0.3034  0.1829 -0.1383
   21DSPC   C4A  288   2.125   0.943   2.347  0.1331  0.2487 -0.1020
   21DSPC   C5A  289   2.513   0.942   2.614 -0.0590  0.1438  0.1887
   21DSPC   C1B  290   1.040   0.284   1.870  0.1963 -0.0314  0.0335
   21DSPC   C2B  291   1.448   0.300   1.937  0.1663 -0.3008  0.0011
   21DSPC   C3B  292   1.849   0.206   2.043 -0.0968  0.1316  0.1176
   21DSPC   C4B  293   2.291   0.287   1.967  0.0406  0.1314  0.0738
   21DSPC   C5B  294   2.602   0.445   1.828  0.2777 -0.4481 -0.0597
   22DSPC   NC3  295   5.107   3.678   0.748  0.0248  0.0180  0.0042
   22DSPC   PO4  296   4.734   3.489   0.563 -0.0778 -0.0826 -0.1504
   22DSPC   GL1  297   4.268   3.627   0.773  0.0060  0.0348 -0.0660
   22DSPC   GL2  298   4.164   3.825   0.541  0.0495  0.2210 -0.1049
   22DSPC   C1A  299   3.850   3.586   0.853  0.4626  0.2009 -0.0832
   22DSPC   C2A  300   3.482   3.271   0.914  0.0191 -0.1119  0.0326
   22DSPC   C3A  301   3.301   3.266   1.269  0.1555  0.1323 -0.1738
   22DSPC   C4A  302   3.118   2.958   1.439 -0.3090  0.0695  0.4146
   22DSPC   C5A  303   2.842   2.784   1.678 -0.1147 -0.0665 -0.0431
   22DSPC   C1B  304   3.772   4.005   0.558  0.0338 -0.0910 -0.1267
   22DSPC   C2B  305   3.429   4.145   0.597 -0.1658  0.0230 -0.4067
   22DSPC   C3B  306   2.995   4.355   0.536  0.1026  0.0437  0.1049
   22DSPC   C4B  307   2.635   4.606   0.554  0.0341  0.0911 -0.2317
   22DSPC   C5B  308   2.549   4.912   0.177  0.0978  0.0336 -0.0201
   23DSPC   NC3  309   0.783   4.717   0.423  0.1943  0.2171  0.1386
   23DSPC   PO4  310   0.694   4.204   0.335  0.1132  0.2041  0.0920
   23DSPC   GL1  311   0.977   4.173   0.538  0.0536  0.2242 -0.4633
   23DSPC   GL2  312   0.799   4.287   0.891  0.0660  0.0519 -0.1216
   23DSPC   C1A  313   1.172   3.828   0.630 -0.1302 -0.2479 -0.3333
   23DSPC   C2A  314   1.626   3.651   0.468  0.1035 -0.0812 -0.2448
   23DSPC   C3A  315   1.810   3.406   0.075 -0.2005 -0.0015  0.1024
   23DSPC   C4A  316   1.901   3.248  -0.318 -0.3447  0.0025  0.3220
   23DSPC   C5A  317   1.976   3.435  -0.681 -0.1317 -0.0892 -0.3150
   23DSPC   C1B  318   1.194   4.470   0.925 -0.1433  0.1169 -0.2513
   23DSPC   C2B  319   1.605   4.473   1.051  0.1119 -0.1258  0.1257
   23DSPC   C3B  320   2.009   4.311   1.084 -0.1004 -0.0093  0.4060
   23DSPC   C4B  321   2.432   4.304   1.277  0.0745  0.0284  0.0395
   23DSPC   C5B  322   2.783   4.448   1.299  0.0235 -0.2029  0.1395
   24DSPC   NC3  323   4.459   1.213   4.022  0.0766 -0.0539 -0.0720
   24DSPC   PO4  324   4.667   0.833   4.088  0.0533 -0.3888  0.2857
   24DSPC   GL1  325   4.227   0.845   4.187  0.4241 -0.1781 -0.0428
   24DSPC   GL2  326   3.992   0.637   4.051  0.1832 -0.1063 -0.1349
   24DSPC   C1A  327   3.893   1.141   4.017  0.0530 -0.0435 -0.0366
   24DSPC   C2A  328   3.475   1.090   3.889 -0.1238 -0.0477 -0.4196
   24DSPC   C3A  329   3.098   0.730   3.859  0.1361 -0.1820 -0.3280
   24DSPC   C4A  330   2.803   0.389   3.774 -0.0610  0.2288  0.0806
   24DSPC   C5A  331   2.666   0.055   4.012 -0.0648 -0.1454 -0.2635
   24DSPC   C1B  332   3.917   0.868   3.625  0.2302 -0.0255  0.3588
   24DSPC   C2B  333   3.625   0.936   3.331  0.0641 -0.0705 -0.0265
   24DSPC   C3B  334   3.097   1.033   3.303  0.2229 -0.1523 -0.0408
   24DSPC   C4B  335   2.744   0.965   3.066  0.0926 -0.0671  0.0864
   24DSPC   C5B  336   2.348   1.015   3.124  0.1936  0.2605  0.0347
   25DSPC   NC3  337   0.106   3.193   4.834  0.3681 -0.0954 -0.0955
   25DSPC   PO4  338   0.065   3.460   4.471 -0.0185 -0.0507 -0.0878
   25DSPC   GL1  339   0.543   3.502   4.361  0.2796  0.3716 -0.3052
   25DSPC   GL2  340   0.894   3.640   4.525  0.1258  0.1859 -0.2043
   25DSPC   C1A  341   1.041   3.332   4.161  0.0427 -0.0777 -0.2032
   25DSPC   C2A  342   1.421   3.151   3.970 -0.1783  0.1564  0.2104
   25DSPC   C3A  343   1.824   2.911   3.791  0.1970 -0.3029 -0.2585
   25DSPC   C4A  344   2.109   2.995   3.474  0.2308 -0.0335  0.0037
   25DSPC   C5A  345   2.281   3.373   3.182 -0.0116  0.0057  0.0461
   25DSPC   C1B  346   1.253   3.736   4.755  0.2127  0.0894  0.1580
   25DSPC   C2B  347   1.502   4.105   4.841 -0.1588  0.3055 -0.1383
   25DSPC   C3B  348   1.822   4.491   4.798 -0.0215  0.0646  0.1289
   25DSPC   C4B  349   2.208   4.490   4.745  0.2359  0.0973 -0.2227
   25DSPC   C5B  350   2.413   4.615   5.164  0.1900  0.0015  0.1110
   26DSPC   NC3  351   4.976   0.356   1.072 -0.1654 -0.1271 -0.0522
   26DSPC   PO4  352   4.983   0.016   0.879 -0.0974  0.0422  0.1201
   26DSPC   GL1  353   4.695  -0.236   1.007  0.4858 -0.1549  0.5435
   26DSPC   GL2  354   4.528  -0.370   0.643  0.4141 -0.2611  0.0484
   26DSPC   C1A  355   4.333  -0.492   1.146  0.3663  0.1803  0.1527
   26DSPC   C2A  356   3.984  -0.452   1.242 -0.1233  0.1264 -0.1932
   26DSPC   C3A  357   3.508  -0.334   1.201 -0.0188  0.2970  0.1239
   26DSPC   C4A  358   3.234  -0.110   1.075  0.2267  0.4654 -0.0341
   26DSPC   C5A  359   2.819  -0.288   1.053  0.0756  0.1165 -0.3730
   26DSPC   C1B  360   4.144  -0.118   0.821 -0.0144  0.0319 -0.1424
   26DSPC   C2B  361   3.784   0.059   0.959  0.0126 -0.2750  0.4015
   26DSPC   C3B  362   3.665   0.447   0.984  0.0505  0.0196  0.0396
   26DSPC   C4B  363   3.414   0.814   1.041  0.0811 -0.3345  0.0510
   26DSPC   C5B  364   2.969   0.818   1.113  0.5553  0.0518  0.0464
   27DSPC   NC3  365   0.100   2.958   2.666 -0.1650 -0.1646 -0.3063
   27DSPC   PO4  366   0.054   2.474   2.850 -0.2187  0.0349 -0.3265
   27DSPC   GL1  367   0.434   2.589   2.488 -0.1323  0.2036 -0.2151
   27DSPC   GL2  368   0.707   2.375   2.385 -0.1372  0.1644  0.3746
   27DSPC   C1A  369   0.849   2.839   2.460 -0.3672  0.3448  0.1370
   27DSPC   C2A  370   0.986   3.143   2.874 -0.1911 -0.3193  0.2451
   27DSPC   C3A  371   1.390   3.243   2.894 -0.0838 -0.0390 -0.0554
   27DSPC   C4A  372   1.791   3.362   2.789  0.4911 -0.1240 -0.0144
   27DSPC   C5A  373   1.950   3.562   2.347 -0.1925 -0.1627 -0.2811
   27DSPC   C1B  374   1.159   2.318   2.476 -0.0172  0.2832 -0.0482
   27DSPC   C2B  375   1.605   2.314   2.619 -0.2370  0.1853  0.2332
   27DSPC   C3B  376   2.073   2.467   2.747 -0.1884  0.2924  0.3648
   27DSPC   C4B  377   2.569   2.462   2.825 -0.0521  0.1177 -0.1508
   27DSPC   C5B  378   2.935   2.426   2.611  0.2358 -0.2770  0.0085
   28DSPC   NC3  379   4.732   4.929   4.415  0.1126 -0.1814  0.4004
   28DSPC   PO4  380   4.389   5.283   4.370 -0.0181  0.1453 -0.1371
   28DSPC   GL1  381   4.021   5.047   4.496 -0.0375  0.3648 -0.1626
   28DSPC   GL2  382   3.827   5.251   4.313  0.0296 -0.2263 -0.1390
   28DSPC   C1A  383   3.781   4.714   4.400  0.0342 -0.2128 -0.4298
   28DSPC   C2A  384   3.490   4.384   4.483  0.0064 -0.0877  0.1935
   28DSPC   C3A  385   3.045   4.165   4.512 -0.0335 -0.0525 -0.1817
   28DSPC   C4A  386   2.870   3.816   4.384  0.2249  0.0082  0.1824
   28DSPC   C5A  387   2.867   3.316   4.339 -0.1660  0.0798  0.0897
   28DSPC   C1B  388   3.678   5.459   4.643  0.0581  0.2055  0.1167
   28DSPC   C2B  389   3.364   5.290   4.990  0.1828 -0.0747  0.0678
   28DSPC   C3B  390   3.124   5.271   5.350 -0.0567  0.1586 -0.0032
   28DSPC   C4B  391   2.753   4.992   5.494  0.0690  0.2668  0.1401
   28DSPC   C5B  392   2.384   4.651   5.643 -0.2192  0.1356  0.3822
   29DSPC   NC3  393   7.289   1.028   4.247  0.1727 -0.3371 -0.1077
   29DSPC   PO4  394   7.552   0.823   4.531 -0.0032  0.2622  0.1105
   29DSPC   GL1  395   7.968   0.723   4.605 -0.2669  0.0340  0.2013
   29DSPC   GL2  396   7.974   0.443   4.765 -0.4386 -0.1676  0.0744
   29DSPC   C1A  397   8.106   0.349   4.251 -0.1110 -0.2107  0.1449
   29DSPC   C2A  398   8.298  -0.068   4.138 -0.0315  0.0148 -0.0659
   29DSPC   C3A  399   8.430  -0.461   3.831  0.0517  0.1604 -0.0458
   29DSPC   C4A  400   8.229  -0.817   3.819  0.1133 -0.0077 -0.1262
   29DSPC   C5A  401   7.841  -1.022   3.921  0.1018  0.1295  0.0511
   29DSPC   C1B  402   8.396   0.340   4.899  0.1164  0.2799 -0.2311
   29DSPC   C2B  403   8.813   0.603   5.023 -0.2074 -0.0015 -0.2060
   29DSPC   C3B  404   9.210   0.832   4.797 -0.0235 -0.1445  0.0476
   29DSPC   C4B  405   9.522   0.873   4.449 -0.1636 -0.1942  0.1371
   29DSPC   C5B  406   9.779   0.536   4.204 -0.0920 -0.1377 -0.0632
   30DSPC   NC3  407   0.339   1.408   1.840 -0.0582 -0.1120 -0.1156
   30DSPC   PO4  408   0.114   1.672   1.557  0.0451 -0.1300  0.0410
   30DSPC   GL1  409   0.497   1.879   1.412  0.2980 -0.0612 -0.2216
   30DSPC   GL2  410   0.765   1.718   1.792  0.2194 -0.3105 -0.5870
   30DSPC   C1A  411   0.984   1.852   1.364  0.0264  0.3659 -0.0119
   30DSPC   C2A  412   1.407   1.907   1.425  0.0865 -0.0361  0.3424
   30DSPC   C3A  413   1.805   1.789   1.202 -0.0223  0.4343 -0.2815
   30DSPC   C4A  414   2.223   1.517   1.227 -0.0211  0.1059  0.2225
   30DSPC   C5A  415   2.516   1.182   1.072  0.2881 -0.0883 -0.1115
   30DSPC   C1B  416   1.225   1.639   1.824  0.0145  0.1179  0.0224
   30DSPC   C2B  417   1.614   1.615   1.732 -0.1194  0.1128  0.0404
   30DSPC   C3B  418   2.156   1.592   1.718 -0.0177 -0.1952  0.0389
   30DSPC   C4B  419   2.498   1.275   1.632 -0.0807  0.1904 -0.4062
   30DSPC   C5B  420   2.845   1.143   1.493 -0.0949 -0.0428  0.0927
   31DSPC   NC3  421   0.433   6.702   1.696  0.2338 -0.1120  0.1621
   31DSPC   PO4  422   0.514   7.153   1.736  0.2552  0.2210  0.0251
   31DSPC   GL1  423   0.873   7.018   1.610  0.1850  0.3994  0.1416
   31DSPC   GL2  424   0.737   6.994   1.291  0.4111  0.1956  0.3014
   31DSPC   C1A  425   1.230   7.193   1.758 -0.2928 -0.1490 -0.1088
   31DSPC   C2A  426   1.697   7.122   1.784 -0.0522  0.0554 -0.0017
   31DSPC   C3A  427   2.161   7.191   1.729 -0.1614  0.1903  0.0890
   31DSPC   C4A  428   2.552   7.150   1.717 -0.0645  0.1677 -0.0217
   31DSPC   C5A  429   2.764   7.281   2.092 -0.3226  0.3000  0.1006
   31DSPC   C1B  430   1.093   7.314   1.267  0.1492 -0.2896  0.0802
   31DSPC   C2B  431   1.521   7.470   1.410  0.0332  0.0791 -0.4102
   31DSPC   C3B  432   1.940   7.438   1.330 -0.1152  0.1041  0.3387
   31DSPC   C4B  433   2.277   7.486   0.902 -0.0192 -0.0920  0.2165
   31DSPC   C5B  434   2.691   7.479   0.684  0.1097  0.0316 -0.0581
   32DSPC   NC3  435   4.956   5.991   0.258 -0.2756 -0.1443 -0.2319
   32DSPC   PO4  436   5.035   5.631   0.517  0.2146 -0.3305 -0.0050
   32DSPC   GL1  437   4.694   5.739   0.683 -0.2278 -0.2434  0.0482
   32DSPC   GL2  438   4.640   5.489   0.800 -0.0812  0.0903  0.0860
   32DSPC   C1A  439   4.241   5.717   0.746  0.1312  0.0307 -0.1208
   32DSPC   C2A  440   3.878   5.879   0.896  0.1476 -0.0801  0.2673
   32DSPC   C3A  441   3.459   5.672   0.861  0.1701 -0.3513 -0.1137
   32DSPC   C4A  442   3.316   5.490   0.556  0.1514  0.2719 -0.1380
   32DSPC   C5A  443   2.970   5.660   0.308  0.3032  0.0578 -0.0766
   32DSPC   C1B  444   4.322   5.298   0.545 -0.1699  0.1328  0.1500
   32DSPC   C2B  445   3.941   5.378   0.479 -0.4114  0.1453 -0.0669
   32DSPC   C3B  446   3.764   5.710   0.369 -0.0890  0.1501  0.0841
   32DSPC   C4B  447   3.429   6.018   0.175  0.2649 -0.1568 -0.1059
   32DSPC   C5B  448   2.984   6.151   0.014 -0.0540  0.0812  0.2928
   33DSPC   NC3  449   0.031   0.007   4.737  0.2302 -0.2274 -0.1655
   33DSPC   PO4  450  -0.064  -0.243   5.125 -0.1353 -0.2682  0.1837
   33DSPC   GL1  451   0.369  -0.342   5.164  0.1386  0.0758  0.2359
   33DSPC   GL2  452   0.557  -0.078   4.970  0.2261  0.3688  0.0224
   33DSPC   C1A  453   0.752  -0.230   5.366  0.0165  0.0505  0.0243
   33DSPC   C2A  454   1.143  -0.030   5.302  0.2655  0.2000 -0.3506
   33DSPC   C3A  455   1.424   0.047   4.991  0.1363 -0.1413  0.1612
   33DSPC   C4A  456   1.776   0.257   4.898 -0.1821  0.2459  0.0076
   33DSPC   C5A  457   2.095   0.521   5.123  0.0129  0.0623  0.4512
   33DSPC   C1B  458   0.690   0.265   5.258  0.0088 -0.4150  0.1459
   33DSPC   C2B  459   0.921   0.760   5.286 -0.2179  0.0639  0.2299
   33DSPC   C3B  460   0.982   1.106   5.652  0.0220  0.1362  0.2304
   33DSPC   C4B  461   1.094   1.093   6.043  0.0039 -0.2008 -0.1996
   33DSPC   C5B  462   1.052   1.333   6.408  0.1172  0.1891 -0.0221
   34DSPC   NC3  463   0.600   5.765   3.804  0.6937 -0.1512 -0.1729
   34DSPC   PO4  464   0.179   5.612   3.558 -0.2702 -0.2255 -0.0574
   34DSPC   GL1  465   0.564   5.411   3.414  0.5511  0.2791  0.1257
   34DSPC   GL2  466   0.728   5.145   3.527  0.0329 -0.0635  0.0699
   34DSPC   C1A  467   1.079   5.569   3.477 -0.2194 -0.1510 -0.3520
   34DSPC   C2A  468   1.403   5.910   3.516  0.0505 -0.1355  0.1107
   34DSPC   C3A  469   1.649   6.109   3.722  0.2161  0.2410 -0.0662
   34DSPC   C4A  470   1.928   6.187   4.053 -0.1564  0.0650 -0.1909
   34DSPC   C5A  471   2.126   6.479   4.279 -0.2749  0.0043 -0.6669
   34DSPC   C1B  472   1.135   4.910   3.344  0.1192 -0.1093  0.1284
   34DSPC   C2B  473   1.467   4.716   3.494  0.3160 -0.2394  0.2190
   34DSPC   C3B  474   1.859   4.848   3.772  0.1699 -0.2083  0.0366
   34DSPC   C4B  475   2.160   4.650   3.919 -0.0343 -0.0698  0.2030
   34DSPC   C5B  476   2.551   4.554   3.937  0.0396 -0.0446 -0.0372
   35DSPC   NC3  477   0.223   5.257   3.164 -0.0377 -0.0305  0.0853
   35DSPC   PO4  478  -0.010   5.442   2.891 -0.1638  0.0702 -0.1158
   35DSPC   GL1  479   0.340   5.701   2.926 -0.0497 -0.4646  0.4515
   35DSPC   GL2  480   0.535   5.897   2.675  0.1147  0.4448 -0.0558
   35DSPC   C1A  481   0.781   5.562   2.996 -0.0241 -0.2546 -0.0194
   35DSPC   C2A  482   1.131   5.673   2.899  0.2286  0.2039 -0.2295
   35DSPC   C3A  483   1.477   5.719   3.050 -0.0083 -0.5484  0.1443
   35DSPC   C4A  484   1.733   6.087   3.011  0.2597  0.1341  0.2633
   35DSPC   C5A  485   1.808   6.490   3.145  0.2975 -0.2145 -0.1287
   35DSPC   C1B  486   0.877   6.161   2.965 -0.2270  0.0942 -0.0805
   35DSPC   C2B  487   1.278   6.232   3.122  0.3890 -0.1626  0.2021
   35DSPC   C3B  488   1.368   6.440   3.427 -0.0864  0.1942 -0.0743
   35DSPC   C4B  489   1.566   6.635   3.799  0.2912 -0.0276  0.2273
   35DSPC   C5B  490   1.495   7.154   3.766 -0.1088  0.1853  0.0026
   36DSPC   NC3  491   4.920   5.300   1.993 -0.1339  0.0466  0.1475
   36DSPC   PO4  492   4.979   5.660   2.083  0.5194  0.0504 -0.0405
   36DSPC   GL1  493   4.490   5.461   2.092  0.2265 -0.0812  0.0839
   36DSPC   GL2  494   4.311   5.597   2.341 -0.0306  0.5089 -0.0311
   36DSPC   C1A  495   4.179   5.116   2.169  0.2848  0.0209  0.3009
   36DSPC   C2A  496   3.754   5.051   2.148  0.4042  0.3920 -0.1365
   36DSPC   C3A  497   3.305   5.220   2.376 -0.1194  0.0812 -0.0951
   36DSPC   C4A  498   2.831   5.325   2.515 -0.0122 -0.2494  0.0567
   36DSPC   C5A  499   2.568   5.336   2.913  0.0787  0.1724 -0.2193
   36DSPC   C1B  500   3.890   5.582   2.302 -0.3108 -0.2837  0.1763
   36DSPC   C2B  501   3.493   5.546   1.994  0.0603 -0.0808 -0.0406
   36DSPC   C3B  502   3.153   5.747   1.763 -0.4286  0.1533 -0.1405
   36DSPC   C4B  503   2.785   5.964   1.798  0.0478 -0.0131  0.0901
   36DSPC   C5B  504   2.414   6.241   1.582  0.1513  0.2990  0.1176
   37DSPC   NC3  505   7.107   2.518   2.137 -0.0230 -0.0683 -0.1393
   37DSPC   PO4  506   7.430   2.899   2.057  0.0325  0.2144 -0.0178
   37DSPC   GL1  507   7.906   2.870   1.919  0.1171  0.3937 -0.0108
   37DSPC   GL2  508   7.994   2.933   1.609 -0.1966  0.0910  0.0003
   37DSPC   C1A  509   8.375   2.572   2.030  0.0296  0.1082  0.2202
   37DSPC   C2A  510   8.806   2.687   2.224  0.0077 -0.1689  0.0785
   37DSPC   C3A  511   9.127   3.063   2.201  0.0202 -0.3343  0.2410
   37DSPC   C4A  512   9.445   3.090   1.973  0.2274  0.1165  0.1956
   37DSPC   C5A  513   9.769   3.177   1.658  0.0857  0.2030 -0.0275
   37DSPC   C1B  514   8.389   2.888   1.406 -0.0542 -0.1495 -0.2359
   37DSPC   C2B  515   8.690   2.982   1.237 -0.3445 -0.1883  0.0980
   37DSPC   C3B  516   8.978   2.634   1.431  0.3432 -0.0838 -0.1733
   37DSPC   C4B  517   9.066   2.432   1.734 -0.0541 -0.1210 -0.0826
   37DSPC   C5B  518   9.222   2.054   1.634 -0.0607 -0.1915 -0.3740
   38DSPC   NC3  519   0.637   7.191   0.374 -0.1833 -0.2222  0.3196
   38DSPC   PO4  520   0.333   7.322   0.123  0.1751  0.0155 -0.2103
   38DSPC   GL1  521   0.569   6.959  -0.074  0.1008 -0.2088 -0.1775
   38DSPC   GL2  522   0.488   6.708   0.102  0.0394 -0.3151 -0.1787
   38DSPC   C1A  523   0.976   6.661  -0.159  0.0737  0.3477  0.1717
   38DSPC   C2A  524   1.296   6.768  -0.362  0.2643 -0.2645  0.0645
   38DSPC   C3A  525   1.449   6.889  -0.733 -0.0276  0.1778 -0.1184
   38DSPC   C4A  526   1.862   6.991  -0.989 -0.0841  0.1455 -0.1774
   38DSPC   C5A  527   2.165   6.951  -1.226 -0.4440  0.3338 -0.0010
   38DSPC   C1B  528   0.616   6.331   0.108  0.5870  0.1100  0.2035
   38DSPC   C2B  529   1.075   6.191   0.063 -0.2249 -0.0230  0.5782
   38DSPC   C3B  530   1.491   6.061   0.021  0.1870  0.2882 -0.0043
   38DSPC   C4B  531   1.935   6.007  -0.413  0.1129  0.0032 -0.3355
   38DSPC   C5B  532   2.210   6.200  -0.628 -0.1399  0.2932  0.1201
   39DSPC   NC3  533   4.667   1.680   2.761  0.3655  0.3220 -0.1440
   39DSPC   PO4  534   4.794   1.314   3.025  0.2321  0.0130  0.0841
   39DSPC   GL1  535   4.346   1.384   2.822  0.3901  0.1196 -0.2035
   39DSPC   GL2  536   4.248   1.330   2.535  0.2072  0.0484  0.0747
   39DSPC   C1A  537   3.920   1.481   2.959 -0.2591 -0.0158  0.1872
   39DSPC   C2A  538   3.517   1.440   3.086  0.0799  0.0035 -0.1175
   39DSPC   C3A  539   3.120   1.358   2.943 -0.1222  0.0976 -0.2536
   39DSPC   C4A  540   2.616   1.413   2.880 -0.0148 -0.0751  0.0753
   39DSPC   C5A  541   2.142   1.314   2.695 -0.2668 -0.1045  0.1179
   39DSPC   C1B  542   3.777   1.204   2.536 -0.0699 -0.0043  0.4109
   39DSPC   C2B  543   3.421   1.267   2.518 -0.2662 -0.0964  0.1279
   39DSPC   C3B  544   2.936   1.243   2.452 -0.1579  0.4371 -0.1461
   39DSPC   C4B  545   2.646   1.570   2.399 -0.0799 -0.0549 -0.1217
   39DSPC   C5B  546   2.496   1.855   2.088 -0.2174 -0.0118  0.2512
   40DSPC   NC3  547   4.611   2.276   1.107 -0.2331  0.1267  0.5748
   40DSPC   PO4  548   4.908   2.547   1.402 -0.0082 -0.0424  0.1150
   40DSPC   GL1  549   4.498   2.624   1.471  0.0986  0.0206  0.0914
   40DSPC   GL2  550   4.399   2.979   1.414 -0.0412  0.0666  0.1678
   40DSPC   C1A  551   3.982   2.660   1.557 -0.1419 -0.1030  0.2150
   40DSPC   C2A  552   3.661   2.728   1.119  0.0092  0.1543 -0.2114
   40DSPC   C3A  553   3.386   2.779   1.054  0.0295 -0.0718  0.0717
   40DSPC   C4A  554   2.934   2.791   0.996 -0.3045 -0.3524  0.1245
   40DSPC   C5A  555   2.488   3.010   1.158 -0.1373  0.2880  0.1989
   40DSPC   C1B  556   4.154   2.931   0.983 -0.0274  0.2686 -0.4947
   40DSPC   C2B  557   4.045   2.849   0.550 -0.1173 -0.2871 -0.1127
   40DSPC   C3B  558   3.672   3.162   0.416  0.2156  0.2509 -0.2519
   40DSPC   C4B  559   3.407   2.918   0.057  0.2127  0.0860 -0.0987
   40DSPC   C5B  560   3.130   2.790  -0.295 -0.0709 -0.0341  0.0285
   41DSPC   NC3  561   0.102   1.957   2.753 -0.0092 -0.1453  0.2605
   41DSPC   PO4  562   0.181   2.223   2.461  0.1421  0.0927 -0.1377
   41DSPC   GL1  563   0.393   2.192   3.053  0.2771  0.0047 -0.1600
   41DSPC   GL2  564   0.536   2.451   2.969 -0.3397 -0.0267 -0.2027
   41DSPC   C1A  565   0.677   2.050   3.384 -0.2442 -0.1134  0.1123
   41DSPC   C2A  566   1.067   2.258   3.265 -0.1416  0.1412 -0.2249
   41DSPC   C3A  567   1.419   2.568   3.155  0.1100  0.1882 -0.1795
   41DSPC   C4A  568   1.814   2.603   3.149 -0.1911 -0.1280  0.0407
   41DSPC   C5A  569   2.310   2.573   3.249  0.2195  0.2431 -0.0202
   41DSPC   C1B  570   0.928   2.613   2.948  0.1285  0.1237  0.5139
   41DSPC   C2B  571   1.317   2.741   2.738  0.0302  0.0874 -0.0523
   41DSPC   C3B  572   1.747   2.825   2.652  0.0054 -0.1342  0.2037
   41DSPC   C4B  573   1.981   2.562   2.248 -0.0871  0.8696 -0.0736
   41DSPC   C5B  574   2.107   2.154   2.039  0.1005  0.1507 -0.2325
   42DSPC   NC3  575   7.174   3.659   3.244  0.1999 -0.1562 -0.2420
   42DSPC   PO4  576   7.430   3.934   3.012  0.1662  0.4498 -0.0043
   42DSPC   GL1  577   7.695   3.836   3.267  0.1803  0.2837  0.0628
   42DSPC   GL2  578   7.891   3.529   3.123  0.1558  0.0605 -0.0333
   42DSPC   C1A  579   8.191   3.999   3.278  0.1071  0.0688 -0.0097
   42DSPC   C2A  580   8.472   4.318   3.284 -0.0609 -0.2202  0.2484
   42DSPC   C3A  581   8.887   4.503   2.967  0.0344 -0.3534 -0.0108
   42DSPC   C4A  582   9.328   4.430   2.830  0.0758  0.1327  0.3814
   42DSPC   C5A  583   9.740   4.415   2.667  0.1053 -0.0663 -0.1060
   42DSPC   C1B  584   8.329   3.609   2.988  0.2049  0.0027 -0.1147
   42DSPC   C2B  585   8.657   3.616   3.291 -0.0352 -0.0033 -0.2442
   42DSPC   C3B  586   9.090   3.614   3.257 -0.0777  0.1605 -0.1163
   42DSPC   C4B  587   9.454   3.863   3.447  0.3675 -0.0561 -0.1796
   42DSPC   C5B  588   9.589   4.113   3.684  0.0844 -0.2466 -0.1929
   43DSPC   NC3  589   5.080   2.419   1.847 -0.2742 -0.0027 -0.0017
   43DSPC   PO4  590   5.073   2.732   2.249 -0.2822  0.2500 -0.2303
   43DSPC   GL1  591   4.626   2.693   2.242  0.1801 -0.2692 -0.3866
   43DSPC   GL2  592   4.725   2.956   1.913 -0.1828 -0.2312 -0.0767
   43DSPC   C1A  593   4.214   2.726   2.385 -0.2480 -0.2258  0.5141
   43DSPC   C2A  594   4.014   2.543   2.579 -0.0091 -0.0427  0.0733
   43DSPC   C3A  595   3.768   2.225   2.433  0.2578  0.0593 -0.2884
   43DSPC   C4A  596   3.472   2.350   2.324 -0.0190  0.4131 -0.0938
   43DSPC   C5A  597   3.162   2.580   2.060 -0.0182 -0.2527 -0.4993
   43DSPC   C1B  598   4.424   2.652   1.874 -0.2093  0.0432 -0.0186
   43DSPC   C2B  599   4.101   2.438   1.989  0.0686 -0.2973  0.1593
   43DSPC   C3B  600   3.682   2.237   1.888  0.1433 -0.0690 -0.1855
   43DSPC   C4B  601   3.539   1.925   2.115  0.1994 -0.3759  0.1578
   43DSPC   C5B  602   3.009   1.951   2.220  0.2091  0.1053 -0.0080
   44DSPC   NC3  603   0.164   1.745   0.162  0.1576 -0.2323 -0.0949
   44DSPC   PO4  604   0.204   1.417  -0.089 -0.1410 -0.1279 -0.2777
   44DSPC   GL1  605   0.541   1.456  -0.244 -0.0798 -0.2535 -0.1014
   44DSPC   GL2  606   0.699   1.360  -0.615 -0.0969 -0.2874  0.1059
   44DSPC   C1A  607   0.880   1.721  -0.340  0.2537  0.2929  0.1326
   44DSPC   C2A  608   1.281   1.888  -0.265  0.0333 -0.0548  0.2598
   44DSPC   C3A  609   1.699   1.847  -0.100 -0.0926 -0.0839 -0.2339
   44DSPC   C4A  610   1.984   1.887   0.217 -0.0515  0.3822  0.3143
   44DSPC   C5A  611   2.220   1.751  -0.084  0.0236 -0.2959  0.0734
   44DSPC   C1B  612   1.155   1.427  -0.618 -0.1799 -0.0128  0.1260
   44DSPC   C2B  613   1.574   1.620  -0.588 -0.0976  0.1408  0.3862
   44DSPC   C3B  614   1.927   1.828  -0.572 -0.1496 -0.3428 -0.2042
   44DSPC   C4B  615   2.055   2.193  -0.320 -0.2586 -0.1513  0.2358
   44DSPC   C5B  616   2.161   2.329   0.095  0.2568  0.1704  0.0825
   45DSPC   NC3  617   0.493   5.017   5.374 -0.0506 -0.2189 -0.2986
   45DSPC   PO4  618   0.138   5.208   5.115 -0.0343  0.0330  0.1840
   45DSPC   GL1  619   0.519   5.249   4.982  0.0239 -0.3994  0.3067
   45DSPC   GL2  620   0.667   5.604   4.837  0.1212 -0.2901  0.0893
   45DSPC   C1A  621   1.046   5.264   4.875  0.0498  0.3427  0.0165
   45DSPC   C2A  622   1.401   5.305   5.144 -0.0110  0.1938 -0.2033
   45DSPC   C3A  623   1.702   5.179   5.473 -0.0475  0.0352 -0.3895
   45DSPC   C4A  624   2.086   5.022   5.740 -0.2825  0.2785 -0.0803
   45DSPC   C5A  625   2.094   4.753   6.069 -0.2191  0.2328 -0.0949
   45DSPC   C1B  626   0.870   5.463   5.271  0.3329  0.0232  0.0216
   45DSPC   C2B  627   1.112   5.675   5.564 -0.1548 -0.1234  0.3824
   45DSPC   C3B  628   1.582   5.686   5.583 -0.1345  0.1959  0.1710
   45DSPC   C4B  629   1.865   5.562   5.217  0.1309 -0.0273  0.1853
   45DSPC   C5B  630   2.246   5.507   4.920  0.0337 -0.0098  0.2418
   46DSPC   NC3  631   5.665   0.052   4.569  0.3094  0.1318  0.0034
   46DSPC   PO4  632   5.261   0.026   4.384 -0.4849 -0.1351 -0.1205
   46DSPC   GL1  633   4.830   0.120   4.663  0.0789 -0.2216 -0.0380
   46DSPC   GL2  634   4.479   0.232   4.670  0.2465  0.0921 -0.1274
   46DSPC   C1A  635   4.629   0.360   5.127  0.3058 -0.1187 -0.2929
   46DSPC   C2A  636   4.314   0.575   5.141  0.1051 -0.0992  0.0329
   46DSPC   C3A  637   4.117   0.959   5.230  0.0366 -0.1493  0.1366
   46DSPC   C4A  638   3.941   1.122   5.649 -0.1950 -0.1704 -0.0457
   46DSPC   C5A  639   3.576   1.417   5.651  0.1970  0.1241 -0.2220
   46DSPC   C1B  640   4.038   0.252   4.594  0.1035 -0.1871 -0.1136
   46DSPC   C2B  641   3.763   0.566   4.873  0.0724 -0.0499 -0.0428
   46DSPC   C3B  642   3.377   0.395   5.127 -0.0602  0.0255 -0.0910
   46DSPC   C4B  643   3.064   0.726   5.163 -0.0037  0.2697 -0.2930
   46DSPC   C5B  644   2.622   0.696   5.248 -0.0701 -0.0022  0.4161
   47DSPC   NC3  645   7.311   5.746   0.507 -0.0055 -0.0309  0.3522
   47DSPC   PO4  646   7.386   5.672   0.958  0.2212  0.0743  0.0023
   47DSPC   GL1  647   7.748   5.826   0.699 -0.1310 -0.0256 -0.0651
   47DSPC   GL2  648   7.752   5.986   0.394  0.2648 -0.1220 -0.0264
   47DSPC   C1A  649   8.106   5.591   0.720  0.1234  0.1759  0.0246
   47DSPC   C2A  650   8.568   5.516   0.810  0.1205 -0.0497  0.1690
   47DSPC   C3A  651   9.040   5.417   0.650  0.0125  0.3186 -0.0539
   47DSPC   C4A  652   9.398   5.568   0.765 -0.1025 -0.2531  0.0032
   47DSPC   C5A  653   9.457   5.687   1.143  0.0080 -0.0783  0.0911
   47DSPC   C1B  654   8.138   5.820   0.224  0.2029  0.0498 -0.0939
   47DSPC   C2B  655   8.498   5.809   0.325 -0.3793  0.1455 -0.0825
   47DSPC   C3B  656   8.896   5.876   0.474 -0.1175  0.2709 -0.1979
   47DSPC   C4B  657   9.113   6.056   0.732  0.0789 -0.0208 -0.2374
   47DSPC   C5B  658   9.532   6.035   0.785  0.1092  0.0351  0.1420
   48DSPC   NC3  659   0.231   4.329   0.097 -0.2600  0.1574 -0.4183
   48DSPC   PO4  660   0.578   4.234  -0.142  0.0913 -0.1327 -0.0903
   48DSPC   GL1  661   0.992   4.395  -0.107  0.2372  0.4295  0.0313
   48DSPC   GL2  662   1.013   4.738  -0.069 -0.2329  0.0199  0.0603
   48DSPC   C1A  663   1.421   4.410  -0.125 -0.0944 -0.0441 -0.0271
   48DSPC   C2A  664   1.829   4.455  -0.061 -0.4225 -0.2223 -0.0260
   48DSPC   C3A  665   2.248   4.190   0.053 -0.1187 -0.0504 -0.0001
   48DSPC   C4A  666   2.245   3.766   0.204  0.1984 -0.2080  0.0736
   48DSPC   C5A  667   2.387   3.333  -0.038  0.2687  0.3330 -0.1793
   48DSPC   C1B  668   1.415   4.891   0.031  0.0109  0.0351  0.0015
   48DSPC   C2B  669   1.738   5.062   0.279  0.3036  0.0549  0.1021
   48DSPC   C3B  670   2.173   5.322   0.335  0.0897 -0.0818  0.1443
   48DSPC   C4B  671   2.403   5.707   0.330  0.3501  0.1758 -0.1158
   48DSPC   C5B  672   2.550   6.066   0.407  0.2636  0.2437  0.2387
   49DSPC   NC3  673   5.000   1.793   1.169  0.0742  0.1021 -0.0340
   49DSPC   PO4  674   4.875   2.003   1.522  0.0009  0.0067  0.0985
   49DSPC   GL1  675   4.456   2.069   1.467  0.0595  0.1212 -0.0440
   49DSPC   GL2  676   4.175   1.793   1.564  0.0677 -0.0644  0.1092
   49DSPC   C1A  677   4.101   2.227   1.294  0.0017 -0.0382 -0.3147
   49DSPC   C2A  678   3.713   2.152   1.389  0.1290  0.0863 -0.1835
   49DSPC   C3A  679   3.290   1.922   1.433 -0.0748 -0.0008  0.0470
   49DSPC   C4A  680   3.162   1.977   1.759  0.0014 -0.0753 -0.3015
   49DSPC   C5A  681   2.785   2.254   1.793  0.0132  0.1665  0.1882
   49DSPC   C1B  682   3.735   1.705   1.641 -0.4528 -0.0105  0.0753
   49DSPC   C2B  683   3.279   1.508   1.630 -0.1161  0.1197  0.1705
   49DSPC   C3B  684   2.891   1.622   1.329  0.0961  0.2444  0.0336
   49DSPC   C4B  685   2.524   1.830   1.579 -0.1568 -0.1368 -0.0508
   49DSPC   C5B  686   2.341   2.150   1.512 -0.0558 -0.0748 -0.0910
   50DSPC   NC3  687   0.017   6.678   3.433 -0.1598 -0.1200  0.5439
   50DSPC   PO4  688   0.060   6.942   3.798  0.3670 -0.0214  0.0732
   50DSPC   GL1  689   0.372   7.000   3.519  0.4293 -0.7099  0.1709
   50DSPC   GL2  690   0.419   7.036   3.117 -0.0948 -0.1503 -0.2057
   50DSPC   C1A  691   0.766   7.138   3.474  0.0671  0.1534 -0.2117
   50DSPC   C2A  692   1.137   7.083   3.382 -0.3569 -0.0296 -0.1826
   50DSPC   C3A  693   1.589   6.978   3.225 -0.0070 -0.0771  0.0671
   50DSPC   C4A  694   2.008   6.983   3.091 -0.2275 -0.0055  0.1147
   50DSPC   C5A  695   2.494   7.062   2.906  0.0865  0.3046 -0.0091
   50DSPC   C1B  696   0.890   7.034   2.950 -0.0423 -0.3179  0.0393
   50DSPC   C2B  697   1.248   7.104   2.634 -0.0305 -0.1287 -0.2539
   50DSPC   C3B  698   1.663   7.180   2.762 -0.0921 -0.2516  0.1506
   50DSPC   C4B  699   2.073   7.201   2.629 -0.1780  0.2071  0.2283
   50DSPC   C5B  700   2.234   7.078   2.268  0.1132  0.0241  0.0881
   51DSPC   NC3  701   0.279   2.784   3.708 -0.1138  0.1277  0.1268
   51DSPC   PO4  702   0.001   3.051   3.217 -0.0776  0.1197 -0.1104
   51DSPC   GL1  703   0.279   2.773   3.143  0.3943 -0.1212  0.3909
   51DSPC   GL2  704   0.503   2.939   2.973  0.3765  0.0496 -0.2891
   51DSPC   C1A  705   0.678   2.545   3.469  0.2109  0.1856  0.1224
   51DSPC   C2A  706   0.917   2.365   3.904  0.1567 -0.0543  0.2126
   51DSPC   C3A  707   1.040   2.716   4.183  0.0922 -0.3369  0.2150
   51DSPC   C4A  708   1.357   2.861   4.426 -0.2241  0.0168  0.1711
   51DSPC   C5A  709   1.771   2.711   4.629 -0.0007  0.2127 -0.1909
   51DSPC   C1B  710   0.885   2.981   3.315 -0.1042 -0.0991 -0.0831
   51DSPC   C2B  711   1.128   2.768   3.512 -0.3044 -0.2624 -0.0782
   51DSPC   C3B  712   1.442   2.593   3.789 -0.0646 -0.5834 -0.1047
   51DSPC   C4B  713   1.987   2.443   3.669  0.0596 -0.0826  0.0336
   51DSPC   C5B  714   2.347   2.331   3.649 -0.5208  0.2051 -0.0545
   52DSPC   NC3  715   0.524   2.014   4.356 -0.0655  0.1061  0.3481
   52DSPC   PO4  716   0.307   1.667   4.092 -0.0018 -0.0311  0.3003
   52DSPC   GL1  717   0.652   1.480   3.983  0.0859  0.1793  0.1807
   52DSPC   GL2  718   0.778   1.867   3.810 -0.1073 -0.0031 -0.2717
   52DSPC   C1A  719   1.092   1.288   4.012 -0.0799 -0.2190  0.2335
   52DSPC   C2A  720   1.381   1.085   4.266 -0.2291 -0.0988  0.4106
   52DSPC   C3A  721   1.652   0.756   4.369  0.1311  0.1378 -0.3464
   52DSPC   C4A  722   1.779   0.314   4.353 -0.0227  0.3413  0.0230
   52DSPC   C5A  723   2.090   0.085   4.407  0.0340  0.3597  0.2289
   52DSPC   C1B  724   1.233   1.975   4.021  0.2172 -0.0031  0.0666
   52DSPC   C2B  725   1.346   2.286   4.180 -0.0991  0.2349  0.1596
   52DSPC   C3B  726   1.775   2.524   4.135  0.1208  0.0004 -0.2434
   52DSPC   C4B  727   2.116   2.275   4.176 -0.1231 -0.0128 -0.1113
   52DSPC   C5B  728   2.370   2.178   4.609 -0.0624 -0.2746  0.1100
   53DSPC   NC3  729   4.564   6.917   2.435 -0.2416  0.0578 -0.0397
   53DSPC   PO4  730   4.772   6.925   2.022 -0.1840 -0.1674 -0.1101
   53DSPC   GL1  731   4.384   6.736   2.066  0.5455 -0.2129  0.0676
   53DSPC   GL2  732   4.128   6.479   1.982 -0.0168  0.2236  0.4241
   53DSPC   C1A  733   4.047   6.893   2.323 -0.4050 -0.1028  0.3316
   53DSPC   C2A  734   3.618   6.715   2.272  0.4920 -0.3759 -0.1184
   53DSPC   C3A  735   3.251   6.524   2.267 -0.1964  0.1483 -0.1185
   53DSPC   C4A  736   2.924   6.312   2.208 -0.1882 -0.2634  0.1111
   53DSPC   C5A  737   2.735   5.962   2.511  0.2885  0.1477 -0.0204
   53DSPC   C1B  738   3.973   6.289   1.611 -0.1658 -0.0151 -0.3581
   53DSPC   C2B  739   3.743   5.968   1.483 -0.0210 -0.0633 -0.1173
   53DSPC   C3B  740   3.380   5.949   1.326  0.0338  0.2348 -0.2514
   53DSPC   C4B  741   2.969   5.912   1.297  0.0243  0.0173  0.0538
   53DSPC   C5B  742   2.573   6.074   1.125  0.1409 -0.0130 -0.0586
   54DSPC   NC3  743   4.288   3.207   3.253 -0.0358 -0.2470  0.3695
   54DSPC   PO4  744   4.467   3.458   3.560 -0.1473 -0.0257  0.0078
   54DSPC   GL1  745   4.168   3.715   3.330  0.1052 -0.2638  0.2400
   54DSPC   GL2  746   4.071   3.859   3.616 -0.2569  0.2008 -0.2225
   54DSPC   C1A  747   3.775   3.971   3.203 -0.1215  0.0963  0.0210
   54DSPC   C2A  748   3.374   4.076   3.204 -0.2242  0.0872  0.1230
   54DSPC   C3A  749   3.155   3.891   3.432 -0.0256  0.1037 -0.0249
   54DSPC   C4A  750   3.085   3.584   3.795 -0.0193 -0.2572 -0.3256
   54DSPC   C5A  751   3.072   3.173   3.919 -0.2194  0.1879  0.1692
   54DSPC   C1B  752   3.889   3.572   3.991  0.5839 -0.0276  0.0228
   54DSPC   C2B  753   3.508   3.638   4.130 -0.2233  0.3963 -0.0914
   54DSPC   C3B  754   3.311   4.023   4.137 -0.2325  0.0075  0.0850
   54DSPC   C4B  755   3.032   4.128   3.912 -0.2521  0.1067  0.1237
   54DSPC   C5B  756   2.766   4.289   3.557  0.0334  0.1746 -0.3253
   55DSPC   NC3  757   4.461   4.161   2.619 -0.2844 -0.0828 -0.3893
   55DSPC   PO4  758   4.583   4.362   2.963  0.0493 -0.0415 -0.2281
   55DSPC   GL1  759   4.214   4.638   3.200 -0.0414  0.0072 -0.0447
   55DSPC   GL2  760   4.120   4.983   3.117 -0.0960 -0.1031 -0.2092
   55DSPC   C1A  761   3.773   4.503   3.453  0.3357  0.1686  0.2478
   55DSPC   C2A  762   3.609   4.132   3.682 -0.0509 -0.0299  0.3237
   55DSPC   C3A  763   3.816   4.030   4.111  0.0276 -0.0545 -0.1881
   55DSPC   C4A  764   3.686   3.869   4.500 -0.4077 -0.0728  0.0843
   55DSPC   C5A  765   3.858   3.634   4.846  0.6682  0.3321 -0.5490
   55DSPC   C1B  766   3.677   5.001   3.038  0.0470 -0.2359  0.0575
   55DSPC   C2B  767   3.394   4.742   3.222 -0.2203  0.2646 -0.1121
   55DSPC   C3B  768   2.936   4.693   3.194  0.1809  0.1764  0.2501
   55DSPC   C4B  769   2.642   4.786   2.969  0.2433  0.0062 -0.0443
   55DSPC   C5B  770   2.497   4.945   2.573  0.1294  0.2372 -0.0528
   56DSPC   NC3  771   0.199   6.831   5.543  0.2711  0.0536 -0.0457
   56DSPC   PO4  772   0.016   6.489   5.298  0.0940 -0.4127  0.4021
   56DSPC   GL1  773   0.323   6.248   5.349 -0.2193  0.0648 -0.2416
   56DSPC   GL2  774   0.565   6.500   5.483  0.2360 -0.0890 -0.2243
   56DSPC   C1A  775   0.824   6.070   5.495  0.1301 -0.2341  0.1251
   56DSPC   C2A  776   1.206   6.189   5.407 -0.3434 -0.0055 -0.1578
   56DSPC   C3A  777   1.616   6.485   5.686 -0.0241  0.1278 -0.1596
   56DSPC   C4A  778   1.871   6.807   5.799 -0.0486 -0.0088  0.0337
   56DSPC   C5A  779   2.241   6.906   5.657 -0.3204 -0.2231  0.0608
   56DSPC   C1B  780   0.742   6.589   5.137 -0.0262  0.0509  0.2942
   56DSPC   C2B  781   1.000   6.835   4.868 -0.2880 -0.3465  0.1900
   56DSPC   C3B  782   0.991   7.189   4.803 -0.1578  0.0348 -0.3110
   56DSPC   C4B  783   1.311   7.419   4.526 -0.3095  0.0502 -0.2533
   56DSPC   C5B  784   1.324   7.766   4.210  0.1050 -0.0214  0.1038
   57DSPC   NC3  785   7.006   6.247   2.334 -0.3736  0.0050  0.0002
   57DSPC   PO4  786   7.340   6.017   2.090 -0.1362 -0.0888  0.2258
   57DSPC   GL1  787   7.800   6.176   2.188  0.1025  0.0633  0.1371
   57DSPC   GL2  788   7.818   6.167   1.850 -0.3235 -0.0361  0.0562
   57DSPC   C1A  789   8.234   6.104   2.334 -0.0303 -0.0570 -0.1374
   57DSPC   C2A  790   8.635   6.163   2.625 -0.2272  0.1805  0.3236
   57DSPC   C3A  791   9.025   6.280   2.347  0.0650 -0.0182 -0.1484
   57DSPC   C4A  792   9.487   6.232   2.318 -0.0269 -0.1154 -0.0633
   57DSPC   C5A  793   9.809   6.202   2.092 -0.2768 -0.0885  0.0370
   57DSPC   C1B  794   8.141   6.319   1.904 -0.1162  0.2181 -0.1885
   57DSPC   C2B  795   8.678   6.123   1.989 -0.1465 -0.1034 -0.1244
   57DSPC   C3B  796   9.122   5.930   2.015  0.1345 -0.0524 -0.1280
   57DSPC   C4B  797   9.533   5.832   1.968 -0.2176 -0.0755  0.1216
   57DSPC   C5B  798   9.746   5.660   1.603 -0.0341  0.5107  0.1241
   58DSPC   NC3  799   4.831   6.649   3.406 -0.1419 -0.1405 -0.2126
   58DSPC   PO4  800   4.940   6.222   3.210  0.0844  0.0801 -0.1409
   58DSPC   GL1  801   4.575   5.963   3.437 -0.0729  0.1717 -0.0598
   58DSPC   GL2  802   4.362   6.072   3.183  0.3145  0.0469 -0.3009
   58DSPC   C1A  803   4.041   5.858   3.576 -0.1545  0.0061 -0.0617
   58DSPC   C2A  804   3.745   6.118   3.617 -0.0859  0.0456 -0.2933
   58DSPC   C3A  805   3.444   6.026   3.716  0.2850 -0.1462 -0.1371
   58DSPC   C4A  806   3.255   5.878   4.026  0.0525  0.1625  0.1501
   58DSPC   C5A  807   2.864   5.912   4.239  0.0340  0.1498  0.0388
   58DSPC   C1B  808   3.967   6.348   3.224  0.1370  0.1075  0.0877
   58DSPC   C2B  809   3.529   6.455   3.285 -0.0075 -0.3516 -0.2276
   58DSPC   C3B  810   3.230   6.573   3.251 -0.3595  0.0732 -0.0790
   58DSPC   C4B  811   2.922   6.650   3.581  0.0307 -0.2539 -0.0001
   58DSPC   C5B  812   2.515   6.684   3.793  0.2880  0.2606 -0.1815
   59DSPC   NC3  813   7.316   5.478   5.501 -0.2591  0.4540  0.0984
   59DSPC   PO4  814   7.361   5.475   5.904 -0.3394  0.1185  0.1714
   59DSPC   GL1  815   7.857   5.374   5.917 -0.2270 -0.3348  0.3752
   59DSPC   GL2  816   7.884   5.416   5.675  0.4093  0.2818 -0.1111
   59DSPC   C1A  817   8.192   5.220   6.248  0.0380  0.2015  0.0157
   59DSPC   C2A  818   8.585   5.076   6.360 -0.0258 -0.2039  0.1576
   59DSPC   C3A  819   8.595   4.598   6.310  0.0595  0.1200 -0.2093
   59DSPC   C4A  820   8.856   4.265   6.235  0.0401  0.2921  0.0877
   59DSPC   C5A  821   9.200   4.108   6.194  0.1214 -0.0242 -0.0831
   59DSPC   C1B  822   8.337   5.246   5.698  0.1028  0.2117 -0.0036
   59DSPC   C2B  823   8.700   5.397   5.948 -0.1261  0.0185  0.1157
   59DSPC   C3B  824   9.165   5.624   6.009 -0.0000 -0.0613 -0.1129
   59DSPC   C4B  825   9.396   5.985   5.909 -0.0515 -0.0796  0.1081
   59DSPC   C5B  826   9.427   6.346   5.705  0.3123 -0.1620 -0.1959
   60DSPC   NC3  827   0.066   1.990   4.592 -0.2305 -0.1814  0.0314
   60DSPC   PO4  828   0.368   1.701   4.750 -0.0498 -0.1692  0.0871
   60DSPC   GL1  829   0.794   1.681   4.874 -0.6454  0.2671 -0.1178
   60DSPC   GL2  830   0.775   1.564   4.449 -0.0108 -0.0593 -0.0064
   60DSPC   C1A  831   1.100   1.899   4.998 -0.0474  0.4114  0.0327
   60DSPC   C2A  832   1.460   2.062   5.100 -0.5631  0.1408  0.2452
   60DSPC   C3A  833   1.933   2.218   5.042  0.0037 -0.1976  0.1999
   60DSPC   C4A  834   2.137   2.523   4.931 -0.4418  0.0658 -0.2312
   60DSPC   C5A  835   2.271   2.691   4.512 -0.3419 -0.0749  0.1213
   60DSPC   C1B  836   1.130   1.397   4.684  0.0838  0.1004 -0.1295
   60DSPC   C2B  837   1.578   1.315   4.771  0.2893  0.4095 -0.1666
   60DSPC   C3B  838   2.026   1.264   4.814 -0.1699  0.1212  0.2075
   60DSPC   C4B  839   2.368   1.210   4.891  0.2763 -0.3091 -0.1502
   60DSPC   C5B  840   2.395   1.589   5.267  0.0372  0.1632 -0.0035
   61DSPC   NC3  841   5.050   3.542   3.036  0.2510 -0.0602 -0.0892
   61DSPC   PO4  842   4.764   3.172   2.994 -0.0480  0.0346 -0.3056
   61DSPC   GL1  843   4.320   3.269   2.790  0.0023 -0.3628 -0.0687
   61DSPC   GL2  844   4.132   3.512   2.851  0.2150 -0.1355  0.2644
   61DSPC   C1A  845   3.913   3.083   2.781 -0.0204  0.1028 -0.0603
   61DSPC   C2A  846   3.650   3.024   2.480  0.0908 -0.2820  0.2290
   61DSPC   C3A  847   3.276   2.938   2.447 -0.0636 -0.2849  0.1483
   61DSPC   C4A  848   2.841   2.904   2.428 -0.1705  0.0995  0.1084
   61DSPC   C5A  849   2.600   2.865   2.080  0.0627 -0.2881 -0.0576
   61DSPC   C1B  850   3.943   3.893   2.641 -0.2640 -0.2344  0.0631
   61DSPC   C2B  851   4.030   3.970   2.125  0.1193 -0.0066 -0.0779
   61DSPC   C3B  852   3.676   4.184   1.878 -0.2757 -0.2501 -0.1813
   61DSPC   C4B  853   3.311   4.193   1.996 -0.0897  0.1047 -0.0005
   61DSPC   C5B  854   2.972   4.185   1.817 -0.0958 -0.0031  0.1025
   62DSPC   NC3  855   4.636   3.843   0.966 -0.0242  0.1903  0.4951
   62DSPC   PO4  856   4.727   4.013   0.606 -0.2393  0.1035 -0.3232
   62DSPC   GL1  857   4.361   4.260   0.873  0.0362 -0.1479  0.2043
   62DSPC   GL2  858   4.340   4.597   0.890  0.0163  0.1512 -0.1276
   62DSPC   C1A  859   3.870   4.458   0.968 -0.1051 -0.2110 -0.3085
   62DSPC   C2A  860   3.506   4.649   0.983  0.2809 -0.1481  0.0073
   62DSPC   C3A  861   2.981   4.707   0.922 -0.0767  0.2519  0.2158
   62DSPC   C4A  862   2.590   4.971   0.950 -0.1829  0.1530  0.1968
   62DSPC   C5A  863   2.316   5.119   0.741  0.0425 -0.0850 -0.0097
   62DSPC   C1B  864   4.005   4.978   0.859  0.2536  0.3371  0.1182
   62DSPC   C2B  865   3.586   4.985   0.476  0.2077  0.1168 -0.2050
   62DSPC   C3B  866   3.169   4.985   0.566 -0.0365 -0.4053 -0.3107
   62DSPC   C4B  867   2.867   5.311   0.655 -0.1487 -0.0657 -0.0389
   62DSPC   C5B  868   2.668   5.694   0.752 -0.0106 -0.3358 -0.1120
   63DSPC   NC3  869   5.006   5.746   3.090  0.0597 -0.0915 -0.0307
   63DSPC   PO4  870   4.622   5.670   2.974 -0.2089 -0.0681 -0.1016
   63DSPC   GL1  871   4.241   5.748   2.843 -0.2785  0.0409 -0.0680
   63DSPC   GL2  872   4.188   6.053   2.621  0.0057 -0.0323 -0.0664
   63DSPC   C1A  873   3.812   5.725   2.824 -0.1373 -0.1100 -0.0235
   63DSPC   C2A  874   3.553   5.880   3.130  0.0390 -0.0108 -0.1044
   63DSPC   C3A  875   3.244   6.067   3.278  0.1647  0.2243  0.0196
   63DSPC   C4A  876   2.889   6.152   3.215  0.0234 -0.1442 -0.1647
   63DSPC   C5A  877   2.616   6.304   3.413  0.2160 -0.1135 -0.2292
   63DSPC   C1B  878   3.918   6.069   2.340  0.1368  0.1610  0.2260
   63DSPC   C2B  879   3.493   5.854   2.414 -0.2758  0.1970 -0.1395
   63DSPC   C3B  880   3.111   5.678   2.265 -0.0647  0.1922  0.0121
   63DSPC   C4B  881   2.712   5.528   2.070 -0.1092  0.1307  0.1771
   63DSPC   C5B  882   2.353   5.428   2.103 -0.0877  0.2900  0.2640
   64DSPC   NC3  883   0.431   6.613   0.984  0.0751 -0.2627  0.0075
   64DSPC   PO4  884   0.340   6.839   0.574 -0.3631 -0.2279 -0.0246
   64DSPC   GL1  885   0.574   6.477   0.558 -0.0653 -0.3969  0.0928
   64DSPC   GL2  886   0.697   6.151   0.811  0.0436 -0.2027  0.1809
   64DSPC   C1A  887   1.024   6.389   0.521  0.1385 -0.0778 -0.1031
   64DSPC   C2A  888   1.395   6.320   0.486  0.0421 -0.3190  0.1339
   64DSPC   C3A  889   1.795   6.297   0.315 -0.1013 -0.4386 -0.0923
   64DSPC   C4A  890   2.252   6.423   0.441  0.1712 -0.0482 -0.0499
   64DSPC   C5A  891   2.626   6.574   0.203  0.1640  0.0644  0.0551
   64DSPC   C1B  892   1.109   5.971   0.950  0.2107 -0.0159  0.0102
   64DSPC   C2B  893   1.460   6.194   1.044  0.0420 -0.0812  0.1746
   64DSPC   C3B  894   1.610   6.551   1.159 -0.0715 -0.0934  0.0410
   64DSPC   C4B  895   1.841   6.727   1.459  0.2441 -0.1127 -0.0424
   64DSPC   C5B  896   2.260   6.722   1.674  0.4031 -0.1884  0.0020
   65DSPC   NC3  897   0.017   2.542   5.201  0.0023  0.0778 -0.3554
   65DSPC   PO4  898   0.357   2.277   4.922  0.1051 -0.0736 -0.0365
   65DSPC   GL1  899   0.735   2.114   4.751 -0.0827  0.0609  0.0607
   65DSPC   GL2  900   0.766   2.384   4.589 -0.0541 -0.1678 -0.1624
   65DSPC   C1A  901   1.170   1.993   4.544 -0.1455 -0.0491 -0.1356
   65DSPC   C2A  902   1.519   1.779   4.527  0.1423 -0.2706 -0.0765
   65DSPC   C3A  903   1.822   1.768   4.785 -0.1414 -0.0348 -0.3232
   65DSPC   C4A  904   2.203   1.780   4.862  0.3837 -0.0321  0.0254
   65DSPC   C5A  905   2.558   1.649   4.653 -0.0349 -0.1776 -0.0370
   65DSPC   C1B  906   0.812   2.801   4.694 -0.2226  0.2735 -0.1094
   65DSPC   C2B  907   1.023   3.215   4.660 -0.0484  0.0609 -0.0871
   65DSPC   C3B  908   1.424   3.424   4.431 -0.0554  0.1005 -0.0362
   65DSPC   C4B  909   1.829   3.580   4.309  0.2922  0.0107  0.1260
   65DSPC   C5B  910   1.975   3.906   3.978 -0.0099 -0.0170  0.0908
   66DSPC   NC3  911   4.886   0.652   1.661  0.0525  0.2127  0.1849
   66DSPC   PO4  912   4.516   0.468   1.860  0.1987 -0.0834  0.0735
   66DSPC   GL1  913   4.154   0.686   1.598 -0.2908 -0.0442  0.1500
   66DSPC   GL2  914   3.767   0.636   1.468 -0.3379  0.1022 -0.0681
   66DSPC   C1A  915   3.966   0.852   1.085  0.3698  0.2891 -0.2260
   66DSPC   C2A  916   3.854   0.826   0.653  0.3172 -0.0358  0.2834
   66DSPC   C3A  917   3.397   0.620   0.562  0.0133  0.0798  0.0151
   66DSPC   C4A  918   3.282   0.204   0.706 -0.2290  0.2493  0.1295
   66DSPC   C5A  919   3.497  -0.213   0.693  0.0075  0.2489 -0.0335
   66DSPC   C1B  920   3.401   0.832   1.541  0.0793  0.1106 -0.0397
   66DSPC   C2B  921   3.031   0.552   1.645  0.1928 -0.0925  0.0578
   66DSPC   C3B  922   2.997   0.403   2.161 -0.0625 -0.0691 -0.1696
   66DSPC   C4B  923   3.251   0.215   2.389 -0.2733 -0.0120  0.0287
   66DSPC   C5B  924   3.523   0.393   2.690  0.0151 -0.2504 -0.2005
   67DSPC   NC3  925   4.420   1.945   3.629 -0.2187  0.0468 -0.0761
   67DSPC   PO4  926   4.572   1.663   3.806 -0.0273 -0.1179 -0.3242
   67DSPC   GL1  927   4.116   1.454   3.715 -0.0369  0.1335 -0.0734
   67DSPC   GL2  928   3.992   1.654   4.003  0.1747  0.0688  0.1314
   67DSPC   C1A  929   3.649   1.497   3.627 -0.1417 -0.6172  0.0659
   67DSPC   C2A  930   3.308   1.413   3.535 -0.0290  0.1486  0.1767
   67DSPC   C3A  931   3.004   1.208   3.778  0.0991  0.1163 -0.0995
   67DSPC   C4A  932   2.686   0.870   3.583  0.1060 -0.2101 -0.3267
   67DSPC   C5A  933   2.456   0.561   3.355 -0.2562  0.1842  0.1343
   67DSPC   C1B  934   3.617   1.851   3.948 -0.2318 -0.4037 -0.0364
   67DSPC   C2B  935   3.367   2.100   3.704  0.2184 -0.0732 -0.2120
   67DSPC   C3B  936   3.030   2.459   3.717 -0.1549 -0.0382  0.1950
   67DSPC   C4B  937   2.667   2.768   3.616  0.1535  0.1652 -0.2755
   67DSPC   C5B  938   2.287   2.759   3.959 -0.5799  0.0286  0.1908
   68DSPC   NC3  939   6.780   7.088   2.904 -0.1449  0.2028  0.1626
   68DSPC   PO4  940   6.995   6.668   3.055  0.0121  0.0831  0.0642
   68DSPC   GL1  941   7.459   6.719   2.966 -0.1126 -0.3372  0.1284
   68DSPC   GL2  942   7.556   7.010   2.628  0.2638 -0.4530  0.2876
   68DSPC   C1A  943   7.924   6.654   2.833  0.3404 -0.1113  0.4200
   68DSPC   C2A  944   8.130   6.613   2.513  0.0005 -0.1976 -0.1870
   68DSPC   C3A  945   8.596   6.630   2.365  0.0903 -0.1255  0.0866
   68DSPC   C4A  946   8.786   6.673   1.915 -0.1023  0.0685 -0.0775
   68DSPC   C5A  947   8.617   6.769   1.515 -0.1554  0.0706  0.1455
   68DSPC   C1B  948   7.986   7.116   2.556  0.0154 -0.3349  0.2104
   68DSPC   C2B  949   8.259   7.383   2.436 -0.2500 -0.2069 -0.2691
   68DSPC   C3B  950   8.512   7.659   2.575  0.0602 -0.1032  0.0742
   68DSPC   C4B  951   8.917   7.764   2.684 -0.1302 -0.2243 -0.2192
   68DSPC   C5B  952   9.415   7.683   2.445  0.1093 -0.1694 -0.0027
   69DSPC   NC3  953   4.901   5.975   5.202 -0.1849 -0.1390  0.0201
   69DSPC   PO4  954   4.756   5.767   5.629  0.2501 -0.6134 -0.1727
   69DSPC   GL1  955   4.393   5.883   5.883  0.5860 -0.3964  0.1467
   69DSPC   GL2  956   4.245   6.221   5.771  0.0535  0.2577 -0.1267
   69DSPC   C1A  957   3.952   5.793   5.766  0.2285  0.0229  0.2479
   69DSPC   C2A  958   3.540   5.950   5.463  0.0411  0.1609 -0.0426
   69DSPC   C3A  959   3.420   5.890   5.087 -0.2015 -0.0851  0.1971
   69DSPC   C4A  960   3.568   6.164   4.823 -0.1288 -0.0479  0.0316
   69DSPC   C5A  961   3.947   6.036   4.708  0.1239 -0.3738 -0.0036
   69DSPC   C1B  962   3.820   6.272   5.774 -0.1830 -0.0408  0.1126
   69DSPC   C2B  963   3.539   6.561   5.735 -0.0394 -0.1428 -0.1338
   69DSPC   C3B  964   3.078   6.612   5.577  0.1567  0.0726 -0.1210
   69DSPC   C4B  965   2.814   6.584   5.369  0.3111 -0.1210  0.1500
   69DSPC   C5B  966   2.779   6.960   5.019  0.2543  0.0728  0.0266
   70DSPC   NC3  967   4.512   3.693   0.118  0.0978 -0.1151 -0.0767
   70DSPC   PO4  968   4.445   3.417  -0.229 -0.0179 -0.0065  0.2099
   70DSPC   GL1  969   4.102   3.390  -0.041  0.0450  0.0049  0.1538
   70DSPC   GL2  970   4.150   3.058  -0.033  0.1571 -0.2645 -0.0393
   70DSPC   C1A  971   3.686   3.273  -0.141 -0.0255 -0.0584 -0.0849
   70DSPC   C2A  972   3.514   3.457  -0.479 -0.0292 -0.0780  0.3359
   70DSPC   C3A  973   3.360   3.777  -0.750  0.0157  0.2281  0.3408
   70DSPC   C4A  974   2.972   3.965  -0.912 -0.1530  0.0394  0.1789
   70DSPC   C5A  975   2.681   4.188  -0.846  0.2049  0.0381  0.2832
   70DSPC   C1B  976   3.849   2.656   0.023 -0.4322  0.2654 -0.1193
   70DSPC   C2B  977   3.527   2.417  -0.080 -0.0077 -0.1967 -0.0346
   70DSPC   C3B  978   3.105   2.238  -0.302 -0.0053 -0.1162  0.1723
   70DSPC   C4B  979   2.901   1.997  -0.706 -0.3002 -0.2764 -0.0046
   70DSPC   C5B  980   2.922   1.627  -0.885  0.3314 -0.1845 -0.3135
   71DSPC   NC3  981   5.047   2.158   4.288 -0.4498  0.0259 -0.1676
   71DSPC   PO4  982   4.729   2.312   4.564  0.4499  0.0572 -0.1954
   71DSPC   GL1  983   4.249   2.389   4.556  0.1443 -0.2384 -0.1480
   71DSPC   GL2  984   4.076   2.598   4.532  0.2692  0.0469 -0.1294
   71DSPC   C1A  985   3.965   2.565   5.003 -0.3024  0.1977  0.1698
   71DSPC   C2A  986   3.522   2.518   5.084  0.2002 -0.1520  0.4237
   71DSPC   C3A  987   3.109   2.553   5.070 -0.2311 -0.3612  0.0161
   71DSPC   C4A  988   2.675   2.530   5.011 -0.0135 -0.0442 -0.2017
   71DSPC   C5A  989   2.428   2.154   5.134  0.1669  0.1758 -0.0167
   71DSPC   C1B  990   3.724   2.314   4.678  0.0614 -0.1018  0.1308
   71DSPC   C2B  991   3.498   1.951   4.927  0.1409 -0.0948  0.3914
   71DSPC   C3B  992   3.497   1.557   4.828 -0.0874  0.1339  0.0735
   71DSPC   C4B  993   3.225   1.404   4.596  0.1770  0.1598 -0.1078
   71DSPC   C5B  994   3.154   1.030   4.269 -0.2607 -0.2844  0.0611
   72DSPC   NC3  995   4.873   7.039   4.740 -0.0984  0.4102  0.0916
   72DSPC   PO4  996   5.078   7.117   5.194  0.0692 -0.0460  0.0955
   72DSPC   GL1  997   4.633   7.235   5.104  0.1420  0.2061  0.1101
   72DSPC   GL2  998   4.469   6.906   5.148 -0.2468 -0.0663  0.1552
   72DSPC   C1A  999   4.296   7.133   4.731  0.0815 -0.1075 -0.4229
   72DSPC   C2A 1000   4.101   6.889   4.467 -0.2056 -0.2235 -0.1036
   72DSPC   C3A 1001   3.964   6.923   4.091  0.0877  0.0642  0.1825
   72DSPC   C4A 1002   3.586   7.108   3.801 -0.4599 -0.1676 -0.2887
   72DSPC   C5A 1003   3.448   6.982   3.446  0.1527  0.2942 -0.3570
   72DSPC   C1B 1004   4.159   6.864   5.443 -0.1048 -0.2088 -0.1792
   72DSPC   C2B 1005   3.844   6.964   5.729  0.3400 -0.0019  0.1823
   72DSPC   C3B 1006   3.461   7.032   5.773 -0.4001 -0.1698  0.0000
   72DSPC   C4B 1007   3.064   6.897   6.081 -0.0560 -0.1616 -0.2060
   72DSPC   C5B 1008   2.771   7.001   6.382 -0.1931  0.1869  0.1674
   73DSPC   NC3 1009   4.829   0.589   0.419 -0.1236 -0.1608  0.1732
   73DSPC   PO4 1010   4.681   0.777   0.792 -0.1354 -0.0353 -0.3549
   73DSPC   GL1 1011   4.292   0.729   0.644 -0.0508 -0.3891 -0.1465
   73DSPC   GL2 1012   4.304   0.586   0.253  0.1948  0.0999  0.0039
   73DSPC   C1A 1013   4.094   0.367   0.713 -0.2047 -0.1315  0.5598
   73DSPC   C2A 1014   3.790   0.226   0.426  0.0337  0.1631  0.1969
   73DSPC   C3A 1015   3.327   0.173   0.250 -0.4584 -0.2156 -0.2044
   73DSPC   C4A 1016   3.102   0.020   0.090  0.3779 -0.1434 -0.2050
   73DSPC   C5A 1017   2.596   0.127   0.059 -0.0121 -0.1040 -0.0426
   73DSPC   C1B 1018   3.966   0.620   0.130  0.0146 -0.2954  0.2380
   73DSPC   C2B 1019   3.561   0.635   0.050  0.1094 -0.1475  0.1757
   73DSPC   C3B 1020   3.270   0.322  -0.230  0.0992  0.3099 -0.0174
   73DSPC   C4B 1021   2.850   0.279  -0.362  0.0426 -0.1427  0.4529
   73DSPC   C5B 1022   2.567  -0.067  -0.496 -0.0895  0.4520 -0.0848
   74DSPC   NC3 1023   0.307   5.650   2.300  0.1294  0.1661  0.0907
   74DSPC   PO4 1024   0.148   5.189   2.288  0.0720 -0.4079  0.1959
   74DSPC   GL1 1025   0.512   4.803   2.265  0.1557  0.0045  0.2238
   74DSPC   GL2 1026   0.510   4.705   2.598 -0.2591 -0.1389 -0.0668
   74DSPC   C1A 1027   0.876   4.668   2.019  0.0843 -0.0952 -0.2063
   74DSPC   C2A 1028   1.166   5.023   1.946  0.0136 -0.0769  0.1208
   74DSPC   C3A 1029   1.599   4.949   1.777 -0.0271 -0.3516 -0.0014
   74DSPC   C4A 1030   2.049   5.140   1.724  0.1212  0.0285  0.0654
   74DSPC   C5A 1031   2.192   5.228   1.303 -0.0898 -0.0838  0.0024
   74DSPC   C1B 1032   0.878   5.084   2.495 -0.0656 -0.0376  0.2745
   74DSPC   C2B 1033   1.282   5.345   2.481 -0.1119 -0.1307 -0.0615
   74DSPC   C3B 1034   1.529   5.675   2.536  0.0457  0.0362  0.2343
   74DSPC   C4B 1035   1.928   5.803   2.571  0.1065  0.1727 -0.0330
   74DSPC   C5B 1036   2.296   5.710   2.569 -0.0375 -0.0720 -0.1600
   75DSPC   NC3 1037   4.515   1.919   1.957 -0.3218  0.0955  0.3005
   75DSPC   PO4 1038   4.712   1.604   2.253  0.1172  0.1385 -0.0589
   75DSPC   GL1 1039   4.425   1.868   2.460 -0.2020  0.0946  0.1195
   75DSPC   GL2 1040   4.354   2.193   2.378 -0.3017 -0.5320  0.1307
   75DSPC   C1A 1041   4.017   1.793   2.592 -0.0000  0.0923 -0.1077
   75DSPC   C2A 1042   3.662   1.716   2.536  0.2167  0.2828  0.1937
   75DSPC   C3A 1043   3.155   1.752   2.666 -0.0142  0.0539 -0.3899
   75DSPC   C4A 1044   2.785   1.853   3.019  0.0362 -0.0403  0.1285
   75DSPC   C5A 1045   2.651   2.142   3.261 -0.2492 -0.0404 -0.4079
   75DSPC   C1B 1046   4.071   1.955   2.107 -0.0742  0.0230 -0.1663
   75DSPC   C2B 1047   3.933   1.541   2.079 -0.1275 -0.1218 -0.2796
   75DSPC   C3B 1048   3.653   1.257   2.035 -0.2448 -0.0873  0.0544
   75DSPC   C4B 1049   3.211   1.501   2.104  0.1733  0.0214 -0.4799
   75DSPC   C5B 1050   2.887   1.519   1.917  0.0843  0.1598 -0.0393
   76DSPC   NC3 1051   4.118   3.066   5.299 -0.0523 -0.2265  0.0838
   76DSPC   PO4 1052   4.471   2.776   5.577 -0.1535  0.3261  0.2648
   76DSPC   GL1 1053   4.065   2.567   5.513 -0.1027 -0.0146  0.2132
   76DSPC   GL2 1054   4.208   2.320   5.774 -0.1962  0.2360 -0.0579
   76DSPC   C1A 1055   3.687   2.827   5.428 -0.0807 -0.0542 -0.0219
   76DSPC   C2A 1056   3.299   3.078   5.126 -0.0419 -0.3139 -0.0019
   76DSPC   C3A 1057   2.970   3.423   4.997  0.0886 -0.0736 -0.3201
   76DSPC   C4A 1058   2.548   3.509   4.860  0.2676  0.3190  0.1634
   76DSPC   C5A 1059   2.211   3.350   4.666  0.1489 -0.4875  0.1222
   76DSPC   C1B 1060   3.895   2.069   5.914  0.0792  0.1140  0.3109
   76DSPC   C2B 1061   3.396   1.897   5.875  0.1575  0.0714  0.5332
   76DSPC   C3B 1062   2.982   1.793   5.837  0.0157  0.1187 -0.1259
   76DSPC   C4B 1063   2.740   1.948   5.678  0.1891  0.2702  0.1244
   76DSPC   C5B 1064   2.590   2.287   5.636 -0.3229  0.0692  0.0115
   77DSPC   NC3 1065   0.468   4.138   1.519  0.2873  0.2275  0.4538
   77DSPC   PO4 1066   0.499   3.799   1.154  0.1936 -0.0414  0.0235
   77DSPC   GL1 1067   0.873   3.652   1.168 -0.3947 -0.1221 -0.0958
   77DSPC   GL2 1068   1.103   3.684   1.458  0.1251  0.1565 -0.1049
   77DSPC   C1A 1069   1.072   3.384   0.719  0.1013  0.1514  0.0433
   77DSPC   C2A 1070   1.175   3.308   0.275  0.0399 -0.0238 -0.0378
   77DSPC   C3A 1071   1.266   3.056  -0.026 -0.2106  0.0941  0.2050
   77DSPC   C4A 1072   1.582   2.786  -0.086 -0.2208 -0.0097  0.2381
   77DSPC   C5A 1073   1.641   2.294   0.056 -0.0143 -0.1756  0.1034
   77DSPC   C1B 1074   1.428   3.518   1.215 -0.2464 -0.1407  0.1368
   77DSPC   C2B 1075   1.755   3.343   0.852 -0.0354  0.0131  0.1445
   77DSPC   C3B 1076   2.121   3.179   0.862  0.2786  0.2757  0.0256
   77DSPC   C4B 1077   2.510   3.214   0.553  0.3240  0.2009 -0.0949
   77DSPC   C5B 1078   2.808   3.493   0.413 -0.1732  0.0700  0.1015
   78DSPC   NC3 1079   4.701   6.006   2.648  0.0836 -0.3801  0.3636
   78DSPC   PO4 1080   4.655   6.500   2.838  0.1554  0.0990 -0.0734
   78DSPC   GL1 1081   4.428   6.701   2.965 -0.1244 -0.1530  0.3607
   78DSPC   GL2 1082   4.123   6.542   2.815  0.0181 -0.1262 -0.2241
   78DSPC   C1A 1083   4.262   6.752   3.398  0.2133  0.0633  0.0308
   78DSPC   C2A 1084   3.868   6.726   3.599  0.0733 -0.1670  0.4749
   78DSPC   C3A 1085   3.445   6.522   3.784 -0.1112 -0.1798  0.0538
   78DSPC   C4A 1086   3.000   6.297   3.959  0.2279 -0.3828  0.0688
   78DSPC   C5A 1087   2.571   6.300   4.266  0.5050 -0.2158 -0.3156
   78DSPC   C1B 1088   3.725   6.417   2.694 -0.0017 -0.0540  0.1469
   78DSPC   C2B 1089   3.341   6.294   2.728 -0.0111  0.0274  0.1935
   78DSPC   C3B 1090   2.895   6.381   2.775  0.2805  0.1743 -0.0336
   78DSPC   C4B 1091   2.646   6.580   2.993 -0.2928  0.0367 -0.2956
   78DSPC   C5B 1092   2.336   6.728   3.316 -0.0875 -0.1247  0.1243
   79DSPC   NC3 1093   4.869   2.487   3.127  0.0160 -0.6531 -0.3793
   79DSPC   PO4 1094   4.398   2.337   3.219 -0.1144 -0.0821 -0.0661
   79DSPC   GL1 1095   4.053   2.473   3.186 -0.0889  0.0907  0.0036
   79DSPC   GL2 1096   3.896   2.880   3.314 -0.1199 -0.0153  0.0622
   79DSPC   C1A 1097   3.629   2.663   2.921  0.0265 -0.3130 -0.3737
   79DSPC   C2A 1098   3.209   2.966   2.956  0.5214 -0.0529  0.0547
   79DSPC   C3A 1099   2.969   3.244   2.798  0.0679 -0.2254  0.0932
   79DSPC   C4A 1100   2.567   3.349   2.740  0.1544  0.3221  0.3519
   79DSPC   C5A 1101   2.332   3.642   2.685 -0.0961  0.2018 -0.4030
   79DSPC   C1B 1102   3.676   3.346   3.158  0.2345 -0.7969  0.1288
   79DSPC   C2B 1103   3.264   3.584   3.095 -0.1196  0.3508  0.2126
   79DSPC   C3B 1104   3.028   3.698   2.718  0.0718  0.3402 -0.0214
   79DSPC   C4B 1105   2.710   3.976   2.505 -0.1156  0.0081 -0.3234
   79DSPC   C5B 1106   2.732   4.250   2.310 -0.0146  0.0525  0.0353
   80DSPC   NC3 1107   0.379   3.199   1.327  0.1992  0.0106 -0.2606
   80DSPC   PO4 1108   0.470   2.845   1.089 -0.0120 -0.1028  0.0293
   80DSPC   GL1 1109   0.786   2.670   0.851  0.3037  0.2223  0.0365
   80DSPC   GL2 1110   0.870   2.446   1.128  0.1248  0.3119 -0.2520
   80DSPC   C1A 1111   1.188   2.860   0.701 -0.2200 -0.0453 -0.2381
   80DSPC   C2A 1112   1.612   2.960   0.481  0.1948  0.1126 -0.0724
   80DSPC   C3A 1113   2.014   2.899   0.234  0.0176 -0.2448  0.0454
   80DSPC   C4A 1114   2.239   2.781  -0.090  0.1492 -0.5556  0.6939
   80DSPC   C5A 1115   2.277   2.588  -0.419 -0.1706 -0.1268  0.2277
   80DSPC   C1B 1116   1.326   2.485   1.015  0.2428 -0.0562  0.0342
   80DSPC   C2B 1117   1.719   2.744   0.927 -0.0085  0.0320  0.2402
   80DSPC   C3B 1118   2.238   2.701   0.761 -0.0047  0.1509 -0.0050
   80DSPC   C4B 1119   2.538   2.463   0.811 -0.0805  0.1852  0.1248
   80DSPC   C5B 1120   2.906   2.350   0.725  0.1618 -0.0843  0.0470
   81DSPC   NC3 1121   4.475   6.672   4.203 -0.3208 -0.1314  0.2046
   81DSPC   PO4 1122   4.841   6.471   4.072 -0.0853  0.0496 -0.1311
   81DSPC   GL1 1123   4.425   6.250   4.230 -0.0555 -0.1590 -0.0289
   81DSPC   GL2 1124   4.122   6.408   4.441  0.0925  0.0263  0.1062
   81DSPC   C1A 1125   4.037   6.409   3.993  0.2441  0.0718 -0.0035
   81DSPC   C2A 1126   3.637   6.263   4.149 -0.2213 -0.1249  0.1365
   81DSPC   C3A 1127   3.227   6.271   4.399  0.1400  0.1448 -0.1267
   81DSPC   C4A 1128   3.001   6.566   4.496  0.2247  0.3537  0.3344
   81DSPC   C5A 1129   3.007   7.025   4.577 -0.4313  0.2638  0.3433
   81DSPC   C1B 1130   3.714   6.603   4.492 -0.0550 -0.2938  0.2643
   81DSPC   C2B 1131   3.470   6.722   4.724 -0.1091 -0.3113 -0.1894
   81DSPC   C3B 1132   3.267   7.048   4.953 -0.3606  0.1150  0.0982
   81DSPC   C4B 1133   3.107   7.103   5.403 -0.6076  0.1754  0.3215
   81DSPC   C5B 1134   2.732   7.014   5.728  0.1085 -0.0390 -0.0909
   82DSPC   NC3 1135   4.902   1.455   1.841 -0.1698 -0.2294 -0.0162
   82DSPC   PO4 1136   4.841   1.088   1.957  0.0524 -0.1092 -0.0819
   82DSPC   GL1 1137   4.471   1.233   2.115 -0.2542  0.0936 -0.3804
   82DSPC   GL2 1138   4.396   1.449   1.904  0.2902  0.3227  0.0235
   82DSPC   C1A 1139   4.146   0.983   2.099  0.0668  0.1024  0.0694
   82DSPC   C2A 1140   3.830   0.714   1.967 -0.1520 -0.1409 -0.0952
   82DSPC   C3A 1141   3.454   0.499   1.905 -0.1217 -0.1067 -0.5527
   82DSPC   C4A 1142   3.295   0.069   1.867  0.3028  0.0591  0.1850
   82DSPC   C5A 1143   2.984   0.057   1.627  0.0940 -0.2341  0.1408
   82DSPC   C1B 1144   4.108   1.263   1.658 -0.2147  0.0715  0.1044
   82DSPC   C2B 1145   3.745   1.182   1.545  0.1154 -0.0064  0.1133
   82DSPC   C3B 1146   3.545   1.260   1.166 -0.0551  0.2148  0.0968
   82DSPC   C4B 1147   3.140   1.292   1.130 -0.0660  0.1359 -0.0448
   82DSPC   C5B 1148   2.901   1.435   0.799 -0.2021  0.0640  0.0576
   83DSPC   NC3 1149   7.278   5.934   3.142 -0.0618  0.0262 -0.0976
   83DSPC   PO4 1150   7.487   6.257   3.017  0.1653  0.0628  0.0168
   83DSPC   GL1 1151   7.764   6.403   3.216 -0.3069 -0.2067  0.0295
   83DSPC   GL2 1152   7.867   6.621   3.433  0.0342 -0.2078 -0.1839
   83DSPC   C1A 1153   8.146   6.192   3.455 -0.1461 -0.3197  0.0670
   83DSPC   C2A 1154   8.414   5.948   3.875  0.2996  0.0873 -0.2471
   83DSPC   C3A 1155   8.758   5.823   4.083 -0.0221  0.1386 -0.1302
   83DSPC   C4A 1156   8.815   5.542   4.404 -0.0184  0.0989  0.2304
   83DSPC   C5A 1157   8.829   5.522   4.737 -0.1585  0.4279  0.1547
   83DSPC   C1B 1158   8.222   6.640   3.305  0.0408 -0.2446  0.1987
   83DSPC   C2B 1159   8.568   6.722   2.971  0.1095  0.2384  0.1010
   83DSPC   C3B 1160   8.862   6.660   2.750  0.2128  0.1588  0.3218
   83DSPC   C4B 1161   9.327   6.699   2.674  0.0963  0.0647  0.0162
   83DSPC   C5B 1162   9.724   6.686   2.625 -0.1209  0.1817 -0.0983
   84DSPC   NC3 1163   4.853   6.067   1.748  0.1134 -0.2241 -0.4841
   84DSPC   PO4 1164   4.478   6.021   2.139 -0.0471  0.0003  0.1778
   84DSPC   GL1 1165   4.225   5.935   1.737 -0.2621 -0.1209  0.0622
   84DSPC   GL2 1166   3.960   5.824   1.897  0.0049 -0.3858 -0.0313
   84DSPC   C1A 1167   4.126   5.662   1.451 -0.0704 -0.3052 -0.4966
   84DSPC   C2A 1168   3.894   5.453   1.063  0.0894  0.0471  0.0370
   84DSPC   C3A 1169   3.524   5.111   0.963 -0.3243  0.0079  0.2184
   84DSPC   C4A 1170   3.172   5.133   1.045 -0.2568  0.2484 -0.2449
   84DSPC   C5A 1171   3.006   4.914   1.362  0.2256  0.0109 -0.2798
   84DSPC   C1B 1172   3.622   6.167   1.975 -0.1318 -0.0076 -0.1153
   84DSPC   C2B 1173   3.575   6.518   1.820  0.0673 -0.1453 -0.3213
   84DSPC   C3B 1174   3.680   6.835   1.790 -0.2236  0.4016  0.2200
   84DSPC   C4B 1175   3.693   7.136   2.023  0.1297  0.0561 -0.2784
   84DSPC   C5B 1176   3.749   7.551   2.284 -0.2019  0.0333  0.2235
   85DSPC   NC3 1177   6.900   0.238   2.677 -0.0018 -0.1291  0.0844
   85DSPC   PO4 1178   7.181   0.004   2.591  0.0154 -0.0221 -0.1860
   85DSPC   GL1 1179   7.602   0.141   2.780  0.2939  0.0501 -0.0914
   85DSPC   GL2 1180   7.756   0.177   2.455  0.0316 -0.0368 -0.0328
   85DSPC   C1A 1181   8.087   0.364   2.810  0.0643 -0.0847 -0.0231
   85DSPC   C2A 1182   8.445   0.571   2.953 -0.1181 -0.0799 -0.0586
   85DSPC   C3A 1183   8.890   0.709   3.079  0.1941  0.1573 -0.3154
   85DSPC   C4A 1184   9.248   0.740   3.330  0.0788 -0.0468  0.1857
   85DSPC   C5A 1185   9.510   1.005   3.630  0.0186 -0.1119  0.2834
   85DSPC   C1B 1186   7.847   0.506   2.407 -0.2054  0.1244  0.2257
   85DSPC   C2B 1187   8.217   0.756   2.506  0.2556  0.0418 -0.1040
   85DSPC   C3B 1188   8.606   0.941   2.626 -0.1683  0.2062 -0.1784
   85DSPC   C4B 1189   9.041   1.009   2.720  0.0478  0.1555 -0.2365
   85DSPC   C5B 1190   9.371   0.744   2.805  0.0127  0.1564 -0.1171
   86DSPC   NC3 1191   5.536   6.141   1.379  0.0315  0.0115  0.0858
   86DSPC   PO4 1192   5.069   6.165   1.298  0.1905 -0.2693  0.2838
   86DSPC   GL1 1193   4.578   6.350   1.265 -0.1434  0.0247  0.2719
   86DSPC   GL2 1194   4.430   6.531   1.584 -0.2649  0.0090 -0.1092
   86DSPC   C1A 1195   4.228   6.172   1.147  0.3354  0.0498  0.0614
   86DSPC   C2A 1196   3.879   6.354   1.071  0.1187 -0.2552 -0.1308
   86DSPC   C3A 1197   3.533   6.470   1.338 -0.2325 -0.2316  0.1542
   86DSPC   C4A 1198   3.163   6.330   1.598 -0.2315 -0.1547 -0.0666
   86DSPC   C5A 1199   2.864   6.522   1.797 -0.2756  0.2935  0.1599
   86DSPC   C1B 1200   4.154   6.870   1.705  0.2087  0.0629 -0.0872
   86DSPC   C2B 1201   4.007   7.283   1.606  0.1474 -0.4865 -0.3880
   86DSPC   C3B 1202   3.560   7.437   1.471 -0.1101  0.0384 -0.3416
   86DSPC   C4B 1203   3.211   7.697   1.237 -0.1764  0.0857 -0.0821
   86DSPC   C5B 1204   2.860   7.631   1.180 -0.0694  0.1482  0.0549
   87DSPC   NC3 1205   5.609   6.893   5.233  0.1190 -0.0402 -0.0733
   87DSPC   PO4 1206   5.402   6.839   5.574  0.0054 -0.0764  0.0275
   87DSPC   GL1 1207   5.033   6.957   5.848 -0.2117 -0.0899  0.1174
   87DSPC   GL2 1208   4.927   6.634   5.983  0.0574 -0.1199 -0.1791
   87DSPC   C1A 1209   4.556   7.159   5.741 -0.0247  0.2886 -0.2061
   87DSPC   C2A 1210   4.343   7.373   5.415 -0.1291  0.4944  0.0324
   87DSPC   C3A 1211   4.003   7.433   5.090 -0.0434  0.1416 -0.1929
   87DSPC   C4A 1212   3.758   7.182   4.780  0.0810  0.0891 -0.0804
   87DSPC   C5A 1213   3.611   7.128   4.426 -0.0238 -0.1150  0.0279
   87DSPC   C1B 1214   4.454   6.633   5.846 -0.1869 -0.2718  0.1804
   87DSPC   C2B 1215   4.041   6.663   6.014 -0.1477 -0.2261 -0.1088
   87DSPC   C3B 1216   3.555   6.778   6.186  0.1588 -0.2276 -0.1314
   87DSPC   C4B 1217   3.251   6.428   6.223 -0.1683  0.2996 -0.1979
   87DSPC   C5B 1218   3.068   6.060   6.373  0.1441 -0.3304 -0.0164
   88DSPC   NC3 1219   7.333   3.812   2.517  0.2733  0.1262 -0.1380
   88DSPC   PO4 1220   7.311   3.373   2.406  0.2073 -0.0075 -0.1704
   88DSPC   GL1 1221   7.715   3.212   2.398 -0.4287 -0.3056 -0.2259
   88DSPC   GL2 1222   7.945   3.358   2.614 -0.3139 -0.0085  0.1494
   88DSPC   C1A 1223   8.091   3.265   2.116  0.0885 -0.0462 -0.2979
   88DSPC   C2A 1224   8.446   3.115   1.959 -0.1032 -0.0499  0.1232
   88DSPC   C3A 1225   8.801   3.078   1.803 -0.0092  0.0127 -0.1958
   88DSPC   C4A 1226   9.083   3.134   1.619  0.0913  0.4817  0.0542
   88DSPC   C5A 1227   9.315   2.976   1.254 -0.2721  0.0911  0.1096
   88DSPC   C1B 1228   8.448   3.307   2.419 -0.1650 -0.1566  0.0164
   88DSPC   C2B 1229   8.794   3.486   2.383  0.1024 -0.1542 -0.0151
   88DSPC   C3B 1230   8.930   3.852   2.171  0.0985 -0.0724  0.0524
   88DSPC   C4B 1231   9.147   4.027   1.992 -0.2800 -0.0915 -0.1482
   88DSPC   C5B 1232   9.334   4.301   1.698 -0.3666 -0.0587  0.0530
   89DSPC   NC3 1233   0.073   1.214   2.938  0.1408  0.1806  0.5731
   89DSPC   PO4 1234  -0.118   0.801   2.762  0.0511  0.1580  0.0740
   89DSPC   GL1 1235   0.242   0.606   2.857  0.1527 -0.1774  0.3481
   89DSPC   GL2 1236   0.282   0.815   3.088  0.1922 -0.0239 -0.3165
   89DSPC   C1A 1237   0.731   0.884   2.960  0.0044  0.0519  0.0593
   89DSPC   C2A 1238   1.106   1.103   3.127 -0.0395  0.0511  0.1146
   89DSPC   C3A 1239   1.385   1.110   3.485  0.1700  0.1409 -0.0353
   89DSPC   C4A 1240   1.669   1.171   3.722  0.1167  0.3576 -0.1982
   89DSPC   C5A 1241   1.999   1.461   3.882 -0.4043  0.2491  0.1368
   89DSPC   C1B 1242   0.625   0.652   3.385  0.1519  0.0354  0.1178
   89DSPC   C2B 1243   1.145   0.722   3.453 -0.3095  0.1010  0.1317
   89DSPC   C3B 1244   1.426   0.715   3.830  0.2672  0.1807 -0.1699
   89DSPC   C4B 1245   1.823   0.666   3.817 -0.0708  0.1710  0.3418
   89DSPC   C5B 1246   2.133   0.306   3.865 -0.0486 -0.3219 -0.0535
   90DSPC   NC3 1247   0.126   4.950   1.873 -0.1883 -0.3080 -0.1032
   90DSPC   PO4 1248   0.217   4.776   1.470 -0.2188  0.1330  0.1352
   90DSPC   GL1 1249   0.685   4.531   1.476 -0.2040 -0.2060  0.0452
   90DSPC   GL2 1250   0.928   4.822   1.445  0.1769  0.2082  0.2007
   90DSPC   C1A 1251   1.026   4.353   1.353  0.0875  0.1606  0.1803
   90DSPC   C2A 1252   1.312   4.010   1.084  0.0183  0.1134 -0.1212
   90DSPC   C3A 1253   1.680   3.913   0.868  0.1062  0.3826  0.1843
   90DSPC   C4A 1254   2.112   3.767   0.682 -0.0379  0.0379 -0.1577
   90DSPC   C5A 1255   2.516   3.808   0.632  0.1022 -0.1502  0.3260
   90DSPC   C1B 1256   1.220   4.616   1.683 -0.0088 -0.1641  0.2320
   90DSPC   C2B 1257   1.445   4.536   2.098 -0.0283  0.2200 -0.0117
   90DSPC   C3B 1258   1.820   4.469   2.237 -0.0673 -0.0523 -0.2540
   90DSPC   C4B 1259   2.276   4.432   2.187  0.1061 -0.0975  0.1394
   90DSPC   C5B 1260   2.490   4.249   1.782 -0.1626 -0.2714 -0.1055
   91DSPC   NC3 1261   0.494   1.347   0.619 -0.3457  0.0196  0.2430
   91DSPC   PO4 1262   0.308   0.936   0.551 -0.3047 -0.2007  0.2443
   91DSPC   GL1 1263   0.653   0.902   0.337 -0.1013  0.1402  0.0385
   91DSPC   GL2 1264   0.693   0.792   0.114 -0.3971 -0.3025  0.1075
   91DSPC   C1A 1265   1.051   0.756   0.557  0.3445  0.1516 -0.1258
   91DSPC   C2A 1266   1.525   0.752   0.596  0.2249  0.0215 -0.2488
   91DSPC   C3A 1267   1.879   0.742   0.696  0.0777  0.1802 -0.0021
   91DSPC   C4A 1268   1.959   1.189   0.865 -0.1963 -0.2645 -0.0496
   91DSPC   C5A 1269   1.814   1.574   0.744  0.0443  0.1973 -0.3048
   91DSPC   C1B 1270   1.116   0.626   0.086  0.0388  0.0713 -0.1130
   91DSPC   C2B 1271   1.374   0.307  -0.172  0.1603  0.0211 -0.0982
   91DSPC   C3B 1272   1.751   0.338  -0.381 -0.2511  0.0477 -0.0748
   91DSPC   C4B 1273   1.944   0.752  -0.322 -0.0671 -0.0156 -0.0061
   91DSPC   C5B 1274   2.128   1.044  -0.524  0.1565  0.1758  0.0439
   92DSPC   NC3 1275   0.906   4.642   4.211  0.0093 -0.0525 -0.2658
   92DSPC   PO4 1276   0.586   4.463   4.439 -0.1379 -0.0432 -0.0718
   92DSPC   GL1 1277   0.835   4.221   4.048  0.2893  0.3554  0.0526
   92DSPC   GL2 1278   0.742   4.352   3.713 -0.0983  0.0382  0.0754
   92DSPC   C1A 1279   1.268   4.391   3.925 -0.0431  0.0013 -0.1029
   92DSPC   C2A 1280   1.724   4.401   3.852 -0.0891 -0.2146 -0.1466
   92DSPC   C3A 1281   2.160   4.302   4.220  0.0133  0.3745 -0.2670
   92DSPC   C4A 1282   2.578   4.342   4.449  0.0138  0.2125 -0.3932
   92DSPC   C5A 1283   2.707   4.624   4.674 -0.0349 -0.0801 -0.4044
   92DSPC   C1B 1284   0.936   4.786   3.742  0.0917  0.2615 -0.2149
   92DSPC   C2B 1285   1.389   5.082   3.804  0.2508  0.0433  0.0603
   92DSPC   C3B 1286   1.724   5.183   4.181 -0.1861  0.2831 -0.1190
   92DSPC   C4B 1287   1.969   5.454   4.398  0.0279  0.0925 -0.1262
   92DSPC   C5B 1288   2.203   5.823   4.417 -0.3084  0.0816 -0.1422
   93DSPC   NC3 1289   4.233   5.511   4.764 -0.1326 -0.1112  0.2238
   93DSPC   PO4 1290   4.604   5.101   4.849 -0.0277 -0.0236 -0.2192
   93DSPC   GL1 1291   4.234   5.103   5.008 -0.0852  0.1587 -0.2738
   93DSPC   GL2 1292   4.092   5.056   5.377 -0.1635 -0.0554 -0.2036
   93DSPC   C1A 1293   3.866   5.023   4.922 -0.2633 -0.0871 -0.1085
   93DSPC   C2A 1294   3.509   4.801   4.819  0.1218  0.0650 -0.0200
   93DSPC   C3A 1295   3.173   4.719   4.539 -0.1876  0.0652  0.0793
   93DSPC   C4A 1296   3.142   4.549   4.138  0.2701  0.0938  0.0245
   93DSPC   C5A 1297   3.190   4.541   3.647 -0.3518  0.0206  0.0708
   93DSPC   C1B 1298   3.960   4.650   5.321 -0.1056  0.2599  0.1367
   93DSPC   C2B 1299   3.611   4.367   5.537 -0.2317 -0.0562  0.1358
   93DSPC   C3B 1300   3.287   4.052   5.506 -0.1017  0.1418 -0.2802
   93DSPC   C4B 1301   3.263   3.687   5.738  0.1320 -0.0288  0.1922
   93DSPC   C5B 1302   3.269   3.387   5.986 -0.4097  0.1381  0.0820
   94DSPC   NC3 1303   4.706   1.826   4.611 -0.5098 -0.1027 -0.0927
   94DSPC   PO4 1304   4.868   1.650   4.255 -0.2357  0.0276  0.2141
   94DSPC   GL1 1305   4.436   1.733   4.246  0.0408  0.2640  0.2842
   94DSPC   GL2 1306   4.442   2.074   4.140  0.1068  0.0254 -0.0383
   94DSPC   C1A 1307   4.210   1.510   4.432  0.0590 -0.1248  0.0400
   94DSPC   C2A 1308   3.814   1.334   4.447  0.0504  0.0662 -0.4092
   94DSPC   C3A 1309   3.409   1.480   4.125 -0.2952  0.1411 -0.0483
   94DSPC   C4A 1310   2.993   1.691   3.911 -0.0219 -0.0417 -0.0112
   94DSPC   C5A 1311   2.768   1.993   3.765 -0.0284 -0.0666  0.0198
   94DSPC   C1B 1312   4.001   2.171   4.125  0.0396  0.1135 -0.0269
   94DSPC   C2B 1313   3.701   2.310   4.055 -0.3240  0.1284 -0.0088
   94DSPC   C3B 1314   3.501   2.626   3.805  0.2264  0.0213 -0.3779
   94DSPC   C4B 1315   3.615   3.077   3.744  0.3209  0.2720  0.0151
   94DSPC   C5B 1316   3.561   3.599   3.586 -0.0435  0.2239  0.0575
   95DSPC   NC3 1317   5.426   0.299   0.158  0.2492  0.0782  0.1890
   95DSPC   PO4 1318   5.031   0.461  -0.014  0.3274 -0.1102 -0.1134
   95DSPC   GL1 1319   4.669   0.343  -0.119  0.1084  0.2349  0.1069
   95DSPC   GL2 1320   4.284   0.495  -0.221  0.0426 -0.1726  0.1454
   95DSPC   C1A 1321   4.187   0.165   0.070  0.0012 -0.0045 -0.3021
   95DSPC   C2A 1322   3.785   0.123  -0.181  0.2022 -0.1651 -0.1069
   95DSPC   C3A 1323   3.625  -0.076  -0.502  0.1248  0.0857 -0.3077
   95DSPC   C4A 1324   3.674  -0.453  -0.657 -0.0723  0.2175  0.0008
   95DSPC   C5A 1325   3.957  -0.707  -0.905 -0.0147 -0.1085  0.0649
   95DSPC   C1B 1326   3.860   0.530  -0.456 -0.1547 -0.1133  0.3037
   95DSPC   C2B 1327   3.590   0.873  -0.494 -0.1897 -0.1171 -0.0876
   95DSPC   C3B 1328   3.289   0.984  -0.280 -0.2511 -0.2019 -0.0544
   95DSPC   C4B 1329   2.918   0.754  -0.139 -0.1617 -0.0274  0.1962
   95DSPC   C5B 1330   2.451   0.760  -0.144  0.0065  0.0393  0.4584
   96DSPC   NC3 1331   0.341   0.851   1.212  0.0724 -0.0253  0.1685
   96DSPC   PO4 1332   0.098   1.156   0.956  0.1107 -0.1935 -0.0193
   96DSPC   GL1 1333   0.658   1.092   1.013  0.3302  0.0059 -0.1719
   96DSPC   GL2 1334   0.703   0.731   0.890 -0.3746  0.0532 -0.0116
   96DSPC   C1A 1335   1.036   0.911   1.303 -0.0188  0.3433  0.0733
   96DSPC   C2A 1336   1.332   0.598   1.524  0.1004  0.1028  0.0546
   96DSPC   C3A 1337   1.705   0.693   1.659 -0.0884 -0.0743 -0.1947
   96DSPC   C4A 1338   2.032   0.501   1.634  0.2809  0.1397 -0.0479
   96DSPC   C5A 1339   2.409   0.212   1.420  0.1361 -0.2509 -0.1105
   96DSPC   C1B 1340   1.059   0.397   1.020  0.0795 -0.2984  0.3352
   96DSPC   C2B 1341   1.449   0.183   0.904  0.2150  0.0841 -0.3053
   96DSPC   C3B 1342   1.892   0.197   0.554  0.0661  0.0787 -0.0944
   96DSPC   C4B 1343   2.268  -0.102   0.404 -0.0058 -0.0630  0.1643
   96DSPC   C5B 1344   2.291  -0.456   0.611  0.1111 -0.2196  0.1370
   97DSPC   NC3 1345   4.789   4.499   0.679  0.0579  0.1685 -0.1216
   97DSPC   PO4 1346   4.707   4.423   1.117 -0.1314  0.0390 -0.1645
   97DSPC   GL1 1347   4.277   4.390   1.295  0.0975  0.1169  0.0917
   97DSPC   GL2 1348   4.274   4.654   1.464  0.1153 -0.0108 -0.0444
   97DSPC   C1A 1349   3.849   4.356   1.462  0.0258  0.0779  0.2016
   97DSPC   C2A 1350   3.389   4.363   1.481  0.4321 -0.0869 -0.1137
   97DSPC   C3A 1351   3.206   3.997   1.400 -0.1542 -0.0944 -0.0676
   97DSPC   C4A 1352   3.196   3.747   1.065  0.2126  0.1222  0.1321
   97DSPC   C5A 1353   2.870   3.480   0.930  0.1488  0.1187 -0.0485
   97DSPC   C1B 1354   3.874   4.824   1.379 -0.1097  0.0097  0.0744
   97DSPC   C2B 1355   3.482   4.904   1.425  0.1266 -0.4153  0.2220
   97DSPC   C3B 1356   3.259   5.112   1.770  0.0978  0.3918  0.0802
   97DSPC   C4B 1357   3.001   5.034   2.083 -0.0385 -0.0777 -0.1426
   97DSPC   C5B 1358   2.930   4.742   2.460 -0.2077  0.1494  0.1835
   98DSPC   NC3 1359   4.257   1.252   1.037  0.1629  0.2808 -0.1727
   98DSPC   PO4 1360   4.781   1.379   0.985  0.1081  0.0326 -0.3503
   98DSPC   GL1 1361   4.420   1.689   1.052 -0.4192  0.0528 -0.0153
   98DSPC   GL2 1362   4.258   1.973   0.833  0.2792  0.1778 -0.2034
   98DSPC   C1A 1363   3.914   1.703   1.059  0.1195 -0.0967  0.2375
   98DSPC   C2A 1364   3.492   1.778   1.040 -0.1287 -0.2657  0.1609
   98DSPC   C3A 1365   3.302   1.700   0.761  0.4218  0.0401  0.1117
   98DSPC   C4A 1366   2.887   1.864   0.536 -0.0864 -0.0667 -0.3284
   98DSPC   C5A 1367   2.560   2.094   0.394  0.2172 -0.6396  0.1220
   98DSPC   C1B 1368   3.827   1.972   0.650  0.1561 -0.1197 -0.0101
   98DSPC   C2B 1369   3.366   2.070   0.506 -0.1493  0.1048  0.0233
   98DSPC   C3B 1370   3.058   2.266   0.249 -0.0073  0.2951 -0.0855
   98DSPC   C4B 1371   2.898   2.587   0.179 -0.1617  0.0165  0.0049
   98DSPC   C5B 1372   2.537   2.682   0.340  0.0831  0.0499 -0.0317
   99DSPC   NC3 1373   0.026   6.798   4.343 -0.1168 -0.0713 -0.0030
   99DSPC   PO4 1374   0.289   6.838   4.687 -0.0297  0.2895 -0.0794
   99DSPC   GL1 1375   0.643   6.706   4.575 -0.6286 -0.4101  0.4575
   99DSPC   GL2 1376   0.518   6.447   4.414 -0.1353 -0.2712 -0.0197
   99DSPC   C1A 1377   1.089   6.881   4.410 -0.3993  0.0327  0.0555
   99DSPC   C2A 1378   1.471   6.893   4.228  0.4889 -0.2974  0.2624
   99DSPC   C3A 1379   1.894   6.928   4.192 -0.0999 -0.0169  0.1053
   99DSPC   C4A 1380   2.353   7.006   4.157 -0.0704  0.1292 -0.2839
   99DSPC   C5A 1381   2.773   6.847   4.155  0.0575 -0.1625  0.1033
   99DSPC   C1B 1382   0.925   6.341   4.311  0.0999 -0.1700  0.0178
   99DSPC   C2B 1383   1.371   6.343   4.206 -0.0907  0.0582 -0.1326
   99DSPC   C3B 1384   1.654   6.586   4.539  0.0928  0.2142 -0.0529
   99DSPC   C4B 1385   1.985   6.516   4.805 -0.0848 -0.1099  0.1584
   99DSPC   C5B 1386   2.290   6.259   4.675  0.0873 -0.0442 -0.1314
  100DSPC   NC3 1387   7.163   1.539   1.201  0.1220 -0.0188 -0.0953
  100DSPC   PO4 1388   7.307   1.950   1.103 -0.2221 -0.2354 -0.1252
  100DSPC   GL1 1389   7.715   1.752   0.918  0.1611  0.1197  0.1533
  100DSPC   GL2 1390   7.725   1.483   1.208 -0.4029 -0.1753  0.2243
  100DSPC   C1A 1391   8.199   1.492   1.056 -0.1094 -0.1189  0.1057
  100DSPC   C2A 1392   8.552   1.357   1.385  0.1339  0.0809 -0.0761
  100DSPC   C3A 1393   9.021   1.241   1.292 -0.2141  0.0571 -0.0451
  100DSPC   C4A 1394   9.431   0.977   1.319 -0.1087 -0.0219 -0.1774
  100DSPC   C5A 1395   9.883   0.775   1.387 -0.1470  0.1075  0.1135
  100DSPC   C1B 1396   7.972   1.299   1.469 -0.1962 -0.1466  0.4199
  100DSPC   C2B 1397   8.334   1.159   1.751 -0.1222 -0.1436 -0.2234
  100DSPC   C3B 1398   8.803   1.178   1.805 -0.0688 -0.0561  0.0394
  100DSPC   C4B 1399   9.161   1.060   1.948 -0.1947 -0.4312 -0.0327
  100DSPC   C5B 1400   9.599   0.917   1.819  0.0963  0.0759  0.2689
  101DSPC   NC3 1401   6.900   1.408   3.474 -0.2167  0.0640 -0.0494
  101DSPC   PO4 1402   7.310   1.333   3.393 -0.3250  0.2944 -0.0776
  101DSPC   GL1 1403   7.777   1.121   3.440  0.1771  0.0264  0.2484
  101DSPC   GL2 1404   7.966   1.334   3.212  0.1113 -0.2061 -0.1030
  101DSPC   C1A 1405   8.091   0.979   3.717 -0.1918 -0.2368 -0.1337
  101DSPC   C2A 1406   8.221   0.889   4.232  0.3645  0.0685  0.1394
  101DSPC   C3A 1407   8.420   0.793   4.626  0.0497  0.1141  0.0352
  101DSPC   C4A 1408   8.562   1.006   4.966 -0.0930 -0.3761 -0.2055
  101DSPC   C5A 1409   9.023   1.092   5.214  0.2821 -0.1197  0.1370
  101DSPC   C1B 1410   8.230   1.408   3.549  0.1704  0.0766 -0.1893
  101DSPC   C2B 1411   8.680   1.572   3.734  0.0228  0.3275 -0.0751
  101DSPC   C3B 1412   8.888   1.549   4.084  0.1699  0.0870 -0.0745
  101DSPC   C4B 1413   9.137   1.370   4.359  0.4397 -0.1204  0.5388
  101DSPC   C5B 1414   9.600   1.386   4.345 -0.4551 -0.0859  0.0339
  102DSPC   NC3 1415   7.258   3.040   4.221 -0.0698  0.0373 -0.0505
  102DSPC   PO4 1416   7.683   3.141   4.044  0.1163  0.1667 -0.2486
  102DSPC   GL1 1417   8.006   3.432   3.820  0.2176  0.1157 -0.4305
  102DSPC   GL2 1418   8.142   3.764   3.974 -0.0169 -0.0719 -0.0948
  102DSPC   C1A 1419   8.389   3.379   3.623  0.1093 -0.1142  0.0789
  102DSPC   C2A 1420   8.799   3.190   3.415  0.4052 -0.1634 -0.0432
  102DSPC   C3A 1421   9.093   3.069   3.177 -0.0875  0.2842 -0.2841
  102DSPC   C4A 1422   9.527   2.981   2.939  0.3289  0.3017  0.0673
  102DSPC   C5A 1423   9.727   2.909   2.564 -0.1705  0.0410 -0.0183
  102DSPC   C1B 1424   8.515   4.011   3.673 -0.2669  0.0005 -0.0520
  102DSPC   C2B 1425   8.854   4.055   3.515 -0.1079 -0.1305  0.1978
  102DSPC   C3B 1426   9.210   4.397   3.362  0.4901  0.1726 -0.1166
  102DSPC   C4B 1427   9.250   4.777   3.220 -0.1635 -0.0655 -0.0963
  102DSPC   C5B 1428   9.176   4.899   2.790  0.0791  0.1358  0.2327
  103DSPC   NC3 1429   4.832   1.052   3.494 -0.0746  0.1660  0.0268
  103DSPC   PO4 1430   4.751   0.690   3.262  0.0419 -0.2176  0.1333
  103DSPC   GL1 1431   4.587   0.943   2.909  0.0762  0.0201  0.0336
  103DSPC   GL2 1432   4.362   1.051   3.170 -0.0926 -0.1394  0.1973
  103DSPC   C1A 1433   4.312   0.822   2.583 -0.0784 -0.1652 -0.2360
  103DSPC   C2A 1434   3.883   0.707   2.436  0.0428 -0.4610  0.2003
  103DSPC   C3A 1435   3.422   0.776   2.365  0.0765  0.0427 -0.1089
  103DSPC   C4A 1436   3.198   0.970   2.039  0.2916 -0.0860  0.0687
  103DSPC   C5A 1437   2.828   0.866   1.987 -0.0141  0.0419 -0.1429
  103DSPC   C1B 1438   4.027   1.061   2.952 -0.0741  0.3961  0.0451
  103DSPC   C2B 1439   3.624   0.900   2.870  0.2213 -0.2451 -0.0818
  103DSPC   C3B 1440   3.220   0.830   2.809 -0.0665  0.1176 -0.0244
  103DSPC   C4B 1441   2.932   0.682   2.563  0.0955  0.0229  0.1991
  103DSPC   C5B 1442   2.586   0.589   2.347 -0.1312 -0.0634 -0.2708
  104DSPC   NC3 1443   0.437   2.522   0.411 -0.1757  0.0214 -0.1707
  104DSPC   PO4 1444   0.313   2.775   0.039  0.3332 -0.5200 -0.1482
  104DSPC   GL1 1445   0.709   2.513   0.001  0.3986 -0.0448  0.2851
  104DSPC   GL2 1446   0.836   2.205  -0.175 -0.3754  0.0763  0.2856
  104DSPC   C1A 1447   1.097   2.536   0.121 -0.1492 -0.3442  0.3391
  104DSPC   C2A 1448   1.436   2.526   0.471  0.1289 -0.0752 -0.0685
  104DSPC   C3A 1449   1.922   2.448   0.477  0.1864 -0.2494  0.1325
  104DSPC   C4A 1450   2.131   2.153   0.625  0.0583  0.3530 -0.2159
  104DSPC   C5A 1451   2.322   1.749   0.727  0.1420  0.3173 -0.0005
  104DSPC   C1B 1452   1.237   2.408  -0.481  0.0767  0.1295 -0.1442
  104DSPC   C2B 1453   1.603   2.512  -0.576 -0.0782 -0.0732 -0.2224
  104DSPC   C3B 1454   1.792   2.823  -0.562  0.1773 -0.2684 -0.1850
  104DSPC   C4B 1455   2.185   2.992  -0.730  0.2956  0.0648 -0.0733
  104DSPC   C5B 1456   2.558   3.015  -0.988 -0.1627 -0.0547  0.0525
  105DSPC   NC3 1457   5.323   4.770   2.337  0.1101 -0.0075 -0.2182
  105DSPC   PO4 1458   4.915   4.911   2.298 -0.1049  0.3882  0.0856
  105DSPC   GL1 1459   4.737   4.881   1.912 -0.0879  0.2962  0.0932
  105DSPC   GL2 1460   4.398   4.751   1.949  0.3013 -0.5756  0.2486
  105DSPC   C1A 1461   4.272   5.097   1.655 -0.0738  0.1074  0.0301
  105DSPC   C2A 1462   3.877   5.313   1.711 -0.1020  0.4119 -0.0234
  105DSPC   C3A 1463   3.549   5.480   1.522  0.0157 -0.1611  0.2532
  105DSPC   C4A 1464   3.045   5.404   1.427 -0.1394 -0.0290  0.1521
  105DSPC   C5A 1465   2.666   5.416   1.205 -0.0802 -0.2421  0.1236
  105DSPC   C1B 1466   3.972   4.681   1.857  0.1892  0.0797 -0.1528
  105DSPC   C2B 1467   3.562   4.662   1.835  0.1346 -0.0094  0.0670
  105DSPC   C3B 1468   3.122   4.620   1.855  0.0736 -0.1952  0.0503
  105DSPC   C4B 1469   2.747   4.706   1.780  0.1671  0.5482 -0.0263
  105DSPC   C5B 1470   2.617   5.135   1.715 -0.2228  0.1399 -0.0706
  106DSPC   NC3 1471   0.397   0.462   5.696 -0.1072 -0.0792 -0.1297
  106DSPC   PO4 1472   0.297   0.472   6.130  0.0972 -0.0022 -0.0304
  106DSPC   GL1 1473   0.702   0.316   5.993 -0.0718  0.1817  0.0982
  106DSPC   GL2 1474   0.748   0.162   5.701 -0.1288 -0.2721 -0.2590
  106DSPC   C1A 1475   1.062   0.154   6.135 -0.1634  0.0259 -0.2984
  106DSPC   C2A 1476   1.398   0.329   6.272  0.1898  0.1379 -0.1332
  106DSPC   C3A 1477   1.787   0.549   6.028 -0.2702 -0.0879  0.0856
  106DSPC   C4A 1478   2.276   0.482   6.083 -0.1651 -0.1515  0.0596
  106DSPC   C5A 1479   2.753   0.530   6.152 -0.1072 -0.0443  0.1449
  106DSPC   C1B 1480   1.119  -0.160   5.767 -0.1378  0.1566 -0.2049
  106DSPC   C2B 1481   1.589  -0.157   5.527  0.0934  0.2145  0.1775
  106DSPC   C3B 1482   1.990  -0.174   5.275 -0.1635 -0.0899  0.1220
  106DSPC   C4B 1483   2.281   0.024   4.984 -0.0092  0.3251  0.0433
  106DSPC   C5B 1484   2.364   0.445   4.687  0.3498  0.0688  0.2015
  107DSPC   NC3 1485   0.455   5.747   1.322 -0.1999  0.0846  0.3969
  107DSPC   PO4 1486   0.480   5.674   1.777  0.0797 -0.0672  0.0182
  107DSPC   GL1 1487   0.933   5.474   1.757  0.1118 -0.0758 -0.5189
  107DSPC   GL2 1488   0.952   5.833   1.872 -0.0017 -0.1187  0.1561
  107DSPC   C1A 1489   1.356   5.504   2.001  0.0746 -0.2291  0.1040
  107DSPC   C2A 1490   1.784   5.379   2.078 -0.0382 -0.0483  0.1594
  107DSPC   C3A 1491   1.988   5.353   2.429 -0.2785 -0.0595 -0.5736
  107DSPC   C4A 1492   2.028   5.322   2.909 -0.0067 -0.0211  0.1430
  107DSPC   C5A 1493   2.151   5.625   3.079 -0.1449  0.0593  0.1279
  107DSPC   C1B 1494   1.407   5.840   1.490  0.0845  0.0038 -0.1347
  107DSPC   C2B 1495   1.625   5.761   1.151 -0.2992 -0.0752 -0.1576
  107DSPC   C3B 1496   1.674   5.361   1.130 -0.0287 -0.1507 -0.1245
  107DSPC   C4B 1497   1.858   4.972   0.943  0.1260  0.0660 -0.3167
  107DSPC   C5B 1498   1.832   4.655   0.635 -0.2467  0.1876  0.0155
  108DSPC   NC3 1499   0.344   6.417   4.921 -0.0132 -0.1215 -0.2386
  108DSPC   PO4 1500   0.182   6.019   4.923  0.2724 -0.0020  0.0292
  108DSPC   GL1 1501   0.636   6.078   5.091  0.0790 -0.1656 -0.2703
  108DSPC   GL2 1502   0.776   6.172   4.781 -0.0288 -0.3018 -0.3735
  108DSPC   C1A 1503   1.083   5.855   5.008  0.1593 -0.1298 -0.0436
  108DSPC   C2A 1504   1.580   5.935   5.059  0.2725  0.1235 -0.2379
  108DSPC   C3A 1505   1.955   5.965   4.873 -0.2584  0.0719 -0.3808
  108DSPC   C4A 1506   1.742   6.107   4.578 -0.0894 -0.1198 -0.1820
  108DSPC   C5A 1507   1.333   5.997   4.554 -0.0478  0.2545 -0.0672
  108DSPC   C1B 1508   1.197   6.333   4.955 -0.0387  0.0714 -0.0019
  108DSPC   C2B 1509   1.671   6.402   5.135  0.1995  0.0733  0.0482
  108DSPC   C3B 1510   1.932   6.639   5.306  0.0834 -0.2145 -0.0836
  108DSPC   C4B 1511   2.369   6.655   5.080 -0.1250  0.1894  0.3563
  108DSPC   C5B 1512   2.548   6.666   4.631  0.0991  0.3047  0.0348
  109DSPC   NC3 1513   7.049   2.258   0.675 -0.2653 -0.2393 -0.3005
  109DSPC   PO4 1514   7.474   2.062   0.621 -0.3854 -0.1125 -0.3693
  109DSPC   GL1 1515   7.846   2.211   0.716  0.0481  0.1673  0.1126
  109DSPC   GL2 1516   8.026   2.026   0.976  0.3125  0.0661  0.0897
  109DSPC   C1A 1517   8.339   2.325   0.679 -0.0175 -0.1908  0.0962
  109DSPC   C2A 1518   8.797   2.095   0.656  0.2102 -0.0137 -0.3979
  109DSPC   C3A 1519   9.127   2.248   0.955  0.1039 -0.0525 -0.0885
  109DSPC   C4A 1520   9.427   2.497   1.252 -0.1953  0.1765 -0.0583
  109DSPC   C5A 1521   9.538   2.703   1.653  0.0211 -0.0240  0.0556
  109DSPC   C1B 1522   8.276   1.807   0.700 -0.0997  0.1322  0.2560
  109DSPC   C2B 1523   8.672   1.653   0.845 -0.1892  0.0752  0.1330
  109DSPC   C3B 1524   8.716   1.155   0.890 -0.1572  0.0879 -0.1716
  109DSPC   C4B 1525   8.833   0.782   1.119  0.2252  0.2704 -0.2531
  109DSPC   C5B 1526   9.203   0.507   1.118 -0.1001 -0.0092 -0.0409
  110DSPC   NC3 1527   4.699   0.551   2.364 -0.0622  0.0346 -0.0612
  110DSPC   PO4 1528   4.824   0.585   2.756  0.0205 -0.2419 -0.0935
  110DSPC   GL1 1529   4.400   0.327   2.737  0.1230 -0.2644  0.0666
  110DSPC   GL2 1530   4.186   0.367   2.981 -0.1279  0.0194  0.1933
  110DSPC   C1A 1531   4.000   0.032   2.678 -0.3997  0.0568 -0.2290
  110DSPC   C2A 1532   3.543  -0.126   2.643 -0.1942  0.0153  0.0315
  110DSPC   C3A 1533   3.237  -0.286   2.339 -0.0950 -0.1539 -0.0805
  110DSPC   C4A 1534   3.173  -0.388   1.950  0.0516  0.0926 -0.2195
  110DSPC   C5A 1535   3.159  -0.538   1.519 -0.1244 -0.2139 -0.1384
  110DSPC   C1B 1536   3.876   0.526   3.133 -0.0259 -0.0710 -0.2137
  110DSPC   C2B 1537   3.495   0.481   3.206  0.1213 -0.0100  0.2172
  110DSPC   C3B 1538   2.999   0.540   3.198  0.2524 -0.0592  0.0757
  110DSPC   C4B 1539   2.753   0.117   3.264  0.4169 -0.1842  0.1934
  110DSPC   C5B 1540   2.927  -0.345   3.154  0.0417  0.1216 -0.2662
  111DSPC   NC3 1541   4.874   4.168   3.741 -0.0942  0.0425 -0.1469
  111DSPC   PO4 1542   4.401   4.254   3.943  0.1455  0.1031  0.0140
  111DSPC   GL1 1543   4.041   4.379   3.824 -0.0426  0.1367 -0.0186
  111DSPC   GL2 1544   4.140   4.730   3.733 -0.3749  0.1350 -0.0360
  111DSPC   C1A 1545   3.632   4.597   3.896 -0.2029 -0.2646 -0.1213
  111DSPC   C2A 1546   3.425   4.981   4.063 -0.1922  0.2096  0.1222
  111DSPC   C3A 1547   3.283   5.173   4.422  0.0645 -0.3621 -0.1923
  111DSPC   C4A 1548   2.932   5.397   4.513  0.1700  0.1703  0.1022
  111DSPC   C5A 1549   2.479   5.394   4.385  0.1164 -0.0214  0.0234
  111DSPC   C1B 1550   3.728   4.960   3.530 -0.0841  0.0093  0.1254
  111DSPC   C2B 1551   3.220   5.068   3.629  0.1014 -0.0481  0.1367
  111DSPC   C3B 1552   2.798   4.988   3.664 -0.0055  0.0011 -0.1620
  111DSPC   C4B 1553   2.425   4.828   3.541 -0.1904 -0.0661  0.1306
  111DSPC   C5B 1554   2.321   4.557   3.233 -0.0251 -0.5156 -0.1490
  112DSPC   NC3 1555   4.505   5.053   3.464 -0.1925 -0.1387  0.0133
  112DSPC   PO4 1556   4.886   5.236   3.187  0.1775 -0.1432  0.0172
  112DSPC   GL1 1557   4.467   5.266   3.068  0.0534  0.1185 -0.1697
  112DSPC   GL2 1558   4.301   5.525   3.294  0.0269 -0.0811 -0.0463
  112DSPC   C1A 1559   4.228   5.227   2.667  0.0379  0.0348  0.3896
  112DSPC   C2A 1560   3.771   5.236   2.593  0.2089  0.0928 -0.0567
  112DSPC   C3A 1561   3.351   5.442   2.809 -0.0097 -0.0826  0.1328
  112DSPC   C4A 1562   3.126   5.832   2.876  0.2986  0.0941  0.0950
  112DSPC   C5A 1563   2.667   5.729   3.159 -0.0957 -0.0958 -0.4795
  112DSPC   C1B 1564   3.834   5.430   3.202  0.0318 -0.1906  0.0301
  112DSPC   C2B 1565   3.460   5.473   3.441  0.0830 -0.1948  0.2535
  112DSPC   C3B 1566   3.071   5.546   3.528  0.0300 -0.0516  0.1244
  112DSPC   C4B 1567   2.790   5.866   3.739  0.2127 -0.1989 -0.1735
  112DSPC   C5B 1568   2.378   6.078   3.793 -0.3072  0.1665 -0.2102
  113DSPC   NC3 1569   7.213   5.107   0.308  0.1358  0.2718  0.0929
  113DSPC   PO4 1570   7.559   4.854   0.388 -0.0551 -0.3004 -0.0097
  113DSPC   GL1 1571   7.824   5.001   0.711  0.0505  0.4447 -0.0211
  113DSPC   GL2 1572   7.813   5.301   1.009  0.2198 -0.1910  0.0265
  113DSPC   C1A 1573   8.225   5.014   0.975  0.0104 -0.2053  0.0606
  113DSPC   C2A 1574   8.660   4.976   1.013 -0.0287 -0.1150 -0.1683
  113DSPC   C3A 1575   8.825   4.826   1.341 -0.0858 -0.0605  0.0169
  113DSPC   C4A 1576   9.301   4.752   1.404  0.1260 -0.0338  0.1186
  113DSPC   C5A 1577   9.775   4.810   1.363 -0.0449 -0.2499 -0.0543
  113DSPC   C1B 1578   8.165   5.429   1.262  0.0355 -0.2686  0.0853
  113DSPC   C2B 1579   8.592   5.277   1.504 -0.3481 -0.4403 -0.0990
  113DSPC   C3B 1580   9.090   5.510   1.591 -0.1237  0.0752 -0.0616
  113DSPC   C4B 1581   9.238   5.888   1.549 -0.1323  0.1109  0.0025
  113DSPC   C5B 1582   9.368   6.224   1.304  0.1973 -0.0615  0.1051
  114DSPC   NC3 1583   0.933   3.976   5.435 -0.1005  0.0857 -0.1039
  114DSPC   PO4 1584   0.671   3.880   5.054  0.1909  0.2325  0.0237
  114DSPC   GL1 1585   0.949   4.160   4.873  0.1963  0.2681  0.1700
  114DSPC   GL2 1586   1.062   4.211   4.477 -0.0984 -0.0842  0.1732
  114DSPC   C1A 1587   1.252   4.553   4.795  0.0139 -0.0545 -0.0093
  114DSPC   C2A 1588   1.517   4.865   4.723  0.0235 -0.5325 -0.0928
  114DSPC   C3A 1589   1.887   5.170   4.811  0.0445  0.2715 -0.0006
  114DSPC   C4A 1590   2.250   5.069   4.703 -0.2379 -0.1172 -0.1687
  114DSPC   C5A 1591   2.628   5.163   4.860  0.0243 -0.0037  0.1423
  114DSPC   C1B 1592   1.291   3.883   4.194 -0.0864 -0.3779  0.1011
  114DSPC   C2B 1593   1.432   3.625   3.981 -0.1757 -0.1297 -0.0225
  114DSPC   C3B 1594   1.803   3.439   3.747  0.1694  0.2105  0.0615
  114DSPC   C4B 1595   2.237   3.458   3.672  0.0104 -0.3085 -0.2627
  114DSPC   C5B 1596   2.629   3.765   3.844  0.1150 -0.1253 -0.2043
  115DSPC   NC3 1597   4.966   5.101   3.676  0.1335 -0.0128  0.1619
  115DSPC   PO4 1598   4.586   4.908   3.923 -0.3222  0.1121 -0.1122
  115DSPC   GL1 1599   4.426   5.288   3.890  0.0379  0.1326 -0.3374
  115DSPC   GL2 1600   4.374   5.608   3.949 -0.1049  0.0278  0.0013
  115DSPC   C1A 1601   3.934   5.333   3.805 -0.5812  0.2573 -0.0999
  115DSPC   C2A 1602   3.525   5.471   3.978  0.0042  0.1577  0.1308
  115DSPC   C3A 1603   3.039   5.452   4.026  0.0416  0.1576 -0.0220
  115DSPC   C4A 1604   2.608   5.462   3.944  0.0006 -0.0572  0.1195
  115DSPC   C5A 1605   2.386   5.143   3.995  0.1676 -0.1276 -0.2416
  115DSPC   C1B 1606   3.933   5.889   4.043 -0.0909 -0.1541  0.4412
  115DSPC   C2B 1607   3.601   5.880   4.394 -0.0444  0.1123  0.0755
  115DSPC   C3B 1608   3.217   5.797   4.645 -0.0155  0.1383 -0.1696
  115DSPC   C4B 1609   3.016   5.671   4.995  0.0905 -0.1874 -0.0154
  115DSPC   C5B 1610   2.832   6.063   5.195 -0.4501  0.0350 -0.1164
  116DSPC   NC3 1611   5.462   6.713   0.378  0.1606  0.0495  0.4470
  116DSPC   PO4 1612   5.212   6.408   0.474  0.3724 -0.2301 -0.0019
  116DSPC   GL1 1613   4.752   6.358   0.579  0.3010 -0.2595  0.1316
  116DSPC   GL2 1614   4.547   6.257   0.329 -0.0320 -0.0238 -0.1453
  116DSPC   C1A 1615   4.465   6.509   0.810  0.1609  0.1462  0.3247
  116DSPC   C2A 1616   4.004   6.722   0.778  0.3141  0.0973  0.2123
  116DSPC   C3A 1617   3.546   6.661   0.850 -0.0890 -0.2403  0.0415
  116DSPC   C4A 1618   3.132   6.750   0.818  0.2272  0.3510  0.1944
  116DSPC   C5A 1619   2.740   6.430   0.674 -0.1600 -0.0682  0.1124
  116DSPC   C1B 1620   4.137   6.226   0.450 -0.0095  0.2463  0.1523
  116DSPC   C2B 1621   3.730   6.310   0.513 -0.1999  0.0173  0.2778
  116DSPC   C3B 1622   3.490   6.183   0.830 -0.0971 -0.0290 -0.0259
  116DSPC   C4B 1623   3.151   6.310   1.049  0.0146  0.4432 -0.0293
  116DSPC   C5B 1624   2.737   6.589   1.229 -0.2970  0.1815 -0.0386
  117DSPC   NC3 1625   0.374   1.612   3.518  0.1929 -0.1073 -0.1350
  117DSPC   PO4 1626   0.049   1.944   3.254  0.2285 -0.3714  0.1657
  117DSPC   GL1 1627   0.469   1.727   3.084 -0.3711  0.1293 -0.2130
  117DSPC   GL2 1628   0.505   1.520   2.780 -0.1780  0.1139  0.3337
  117DSPC   C1A 1629   0.927   1.694   3.118  0.1329 -0.0981  0.1001
  117DSPC   C2A 1630   1.238   1.776   3.322  0.1100 -0.1181 -0.1017
  117DSPC   C3A 1631   1.672   1.637   3.407  0.0986  0.0055 -0.0163
  117DSPC   C4A 1632   1.952   1.855   3.513 -0.2413  0.2106 -0.1197
  117DSPC   C5A 1633   2.248   1.876   3.748  0.1343  0.0036 -0.0350
  117DSPC   C1B 1634   0.900   1.383   2.699 -0.0920  0.0606 -0.2156
  117DSPC   C2B 1635   1.436   1.447   2.916  0.1009 -0.2968 -0.1065
  117DSPC   C3B 1636   1.750   1.213   3.177  0.2015 -0.1414  0.0668
  117DSPC   C4B 1637   2.071   1.405   3.283 -0.0363  0.0129 -0.2281
  117DSPC   C5B 1638   2.400   1.670   3.331  0.0789  0.2381  0.0348
  118DSPC   NC3 1639   5.383   3.801   1.328  0.2708 -0.0706 -0.0267
  118DSPC   PO4 1640   5.012   4.004   1.269  0.2445  0.1832 -0.0500
  118DSPC   GL1 1641   4.544   4.006   1.330  0.0101  0.0428 -0.0586
  118DSPC   GL2 1642   4.366   3.682   1.355  0.0029 -0.1311  0.1681
  118DSPC   C1A 1643   4.085   3.996   1.068  0.0738  0.2599  0.2479
  118DSPC   C2A 1644   3.583   4.051   1.086 -0.0216 -0.1086  0.0613
  118DSPC   C3A 1645   3.144   4.243   0.990  0.1761 -0.1133  0.0884
  118DSPC   C4A 1646   2.662   4.217   0.867 -0.1639 -0.0349 -0.2515
  118DSPC   C5A 1647   2.291   4.233   0.567 -0.1945  0.1478  0.0287
  118DSPC   C1B 1648   4.003   3.311   1.379 -0.0102  0.2630 -0.2147
  118DSPC   C2B 1649   3.644   3.082   1.637  0.0753 -0.1147 -0.2410
  118DSPC   C3B 1650   3.329   3.205   1.885 -0.0276 -0.1472  0.1205
  118DSPC   C4B 1651   2.905   3.269   1.921 -0.1735  0.2099 -0.0265
  118DSPC   C5B 1652   2.695   3.643   1.922  0.1435  0.1188  0.2295
  119DSPC   NC3 1653   4.891   3.915   1.751 -0.3057  0.0215  0.0229
  119DSPC   PO4 1654   5.000   3.940   2.227 -0.1310 -0.1097 -0.0079
  119DSPC   GL1 1655   4.542   3.807   2.222  0.4068  0.0118  0.1739
  119DSPC   GL2 1656   4.491   4.114   2.034 -0.0120  0.0151 -0.1498
  119DSPC   C1A 1657   4.270   3.455   2.290 -0.0531 -0.2485  0.3775
  119DSPC   C2A 1658   3.879   3.437   2.412  0.2958 -0.1999 -0.0725
  119DSPC   C3A 1659   3.507   3.544   2.601  0.1348 -0.0091 -0.4000
  119DSPC   C4A 1660   3.470   3.976   2.674 -0.1283 -0.0200 -0.1978
  119DSPC   C5A 1661   3.196   4.133   2.505 -0.0534  0.0799 -0.1704
  119DSPC   C1B 1662   4.256   4.108   1.651  0.1965  0.0227  0.1379
  119DSPC   C2B 1663   3.906   3.857   1.537 -0.3033 -0.0041  0.0066
  119DSPC   C3B 1664   3.564   3.607   1.540  0.2199 -0.0723  0.1886
  119DSPC   C4B 1665   3.107   3.568   1.647 -0.0557  0.0562  0.0624
  119DSPC   C5B 1666   2.795   3.352   1.431 -0.1470  0.0548 -0.1629
  120DSPC   NC3 1667   7.100   1.167   2.371  0.1268 -0.0762 -0.1710
  120DSPC   PO4 1668   7.440   1.403   2.463  0.1276 -0.0818 -0.1237
  120DSPC   GL1 1669   7.737   1.503   2.275 -0.1024  0.3150  0.0914
  120DSPC   GL2 1670   7.840   1.860   2.358 -0.0744 -0.0989 -0.0017
  120DSPC   C1A 1671   8.160   1.221   2.243  0.1281  0.3492 -0.3972
  120DSPC   C2A 1672   8.516   1.265   2.214 -0.1294 -0.2473 -0.1753
  120DSPC   C3A 1673   9.044   1.458   2.264  0.0285  0.1084 -0.0297
  120DSPC   C4A 1674   9.463   1.432   2.206  0.3096 -0.0978  0.0929
  120DSPC   C5A 1675   9.811   1.246   2.110  0.2961 -0.0310  0.0072
  120DSPC   C1B 1676   8.128   2.032   2.702  0.1491 -0.1212  0.0110
  120DSPC   C2B 1677   8.568   2.042   2.873  0.0311  0.1313 -0.0294
  120DSPC   C3B 1678   8.984   2.103   3.129  0.3037  0.0045 -0.2543
  120DSPC   C4B 1679   8.864   2.131   3.615  0.2027 -0.1674  0.0705
  120DSPC   C5B 1680   9.106   2.009   3.940 -0.1817 -0.3000 -0.0992
  121DSPC   NC3 1681   0.017   5.837   1.546 -0.0964  0.0211 -0.2199
  121DSPC   PO4 1682   0.203   6.324   1.447  0.0029  0.1910 -0.2959
  121DSPC   GL1 1683   0.645   6.321   1.293  0.0213 -0.2289 -0.0971
  121DSPC   GL2 1684   0.765   6.084   1.392 -0.2499 -0.2994  0.0194
  121DSPC   C1A 1685   1.046   6.459   1.036 -0.0571 -0.0909  0.0755
  121DSPC   C2A 1686   1.289   6.684   0.862  0.0967 -0.1431  0.3975
  121DSPC   C3A 1687   1.442   7.031   1.031 -0.0830  0.1198 -0.3175
  121DSPC   C4A 1688   1.922   7.118   0.986 -0.2887  0.2499  0.0879
  121DSPC   C5A 1689   2.221   7.010   1.217  0.0531  0.1894 -0.1923
  121DSPC   C1B 1690   1.182   6.285   1.489  0.2023 -0.1400  0.1507
  121DSPC   C2B 1691   1.562   6.276   1.581 -0.0654 -0.0646 -0.1414
  121DSPC   C3B 1692   1.950   6.376   1.869  0.0546  0.1385  0.1229
  121DSPC   C4B 1693   1.974   6.681   2.163 -0.1084 -0.0302  0.1292
  121DSPC   C5B 1694   1.690   6.867   2.307 -0.1836 -0.2599  0.0819
  122DSPC   NC3 1695   4.752   6.257   4.510  0.2811  0.0935  0.0683
  122DSPC   PO4 1696   4.538   6.107   4.824 -0.1697 -0.0753 -0.1423
  122DSPC   GL1 1697   4.314   5.821   5.095  0.0869  0.3878  0.0369
  122DSPC   GL2 1698   4.335   5.926   5.350 -0.1025 -0.0315 -0.1390
  122DSPC   C1A 1699   3.984   5.601   5.233 -0.0135  0.2601  0.1293
  122DSPC   C2A 1700   3.623   5.393   5.406 -0.0914 -0.1112 -0.1284
  122DSPC   C3A 1701   3.427   4.877   5.331 -0.0431 -0.2061  0.0356
  122DSPC   C4A 1702   3.152   4.636   5.508  0.1162 -0.1491 -0.1103
  122DSPC   C5A 1703   2.863   4.245   5.508  0.1333 -0.1354 -0.1916
  122DSPC   C1B 1704   3.950   6.293   5.316  0.0216  0.1977  0.1009
  122DSPC   C2B 1705   3.500   6.435   5.229 -0.0943  0.1141 -0.2793
  122DSPC   C3B 1706   3.083   6.477   4.988 -0.2557 -0.0505 -0.2806
  122DSPC   C4B 1707   2.808   6.170   4.671  0.0649 -0.0658 -0.1929
  122DSPC   C5B 1708   2.651   5.765   4.719  0.0064  0.0457 -0.1865
  123DSPC   NC3 1709   4.489   0.382   4.125  0.3248  0.2783 -0.0333
  123DSPC   PO4 1710   4.830   0.085   3.998 -0.3509 -0.1798 -0.0527
  123DSPC   GL1 1711   4.507   0.086   3.765 -0.2289  0.1417 -0.5321
  123DSPC   GL2 1712   4.393   0.321   3.550 -0.2352 -0.0969 -0.1781
  123DSPC   C1A 1713   4.070   0.035   3.978  0.3174  0.0975 -0.1294
  123DSPC   C2A 1714   3.687   0.150   4.094  0.2394  0.0387  0.3325
  123DSPC   C3A 1715   3.509   0.280   4.513 -0.5366  0.0953 -0.1689
  123DSPC   C4A 1716   3.238   0.094   4.660 -0.0668  0.1672  0.1974
  123DSPC   C5A 1717   2.977   0.057   5.064  0.0600 -0.0674  0.5470
  123DSPC   C1B 1718   4.055   0.395   3.599 -0.1069  0.1733 -0.3433
  123DSPC   C2B 1719   3.530   0.578   3.695  0.0959  0.0949 -0.3121
  123DSPC   C3B 1720   3.258   0.131   3.607 -0.0833  0.0523 -0.2665
  123DSPC   C4B 1721   3.007  -0.238   3.714  0.0277  0.2657 -0.1363
  123DSPC   C5B 1722   2.528  -0.207   3.622  0.0292  0.0921  0.0305
  124DSPC   NC3 1723   7.308   2.270   5.623  0.0398  0.1415  0.0381
  124DSPC   PO4 1724   7.697   2.237   5.894 -0.0915  0.1114  0.0424
  124DSPC   GL1 1725   8.109   2.135   6.114  0.1154  0.0103 -0.4816
  124DSPC   GL2 1726   7.946   1.827   6.212 -0.0395  0.0322 -0.3036
  124DSPC   C1A 1727   8.555   2.044   6.107  0.1121  0.3738 -0.1882
  124DSPC   C2A 1728   8.878   1.663   6.205 -0.0918 -0.0375 -0.4192
  124DSPC   C3A 1729   8.887   1.257   6.191  0.0550  0.3066 -0.3417
  124DSPC   C4A 1730   8.898   0.943   5.875  0.5950 -0.2150 -0.0525
  124DSPC   C5A 1731   8.728   0.823   5.473 -0.0483  0.0920  0.2604
  124DSPC   C1B 1732   8.373   1.601   5.955  0.0172  0.3378 -0.2873
  124DSPC   C2B 1733   8.715   1.386   5.744 -0.2828  0.0970  0.2889
  124DSPC   C3B 1734   9.162   1.369   5.778 -0.2384  0.2049 -0.2506
  124DSPC   C4B 1735   9.378   1.034   5.935 -0.2331 -0.1460  0.1969
  124DSPC   C5B 1736   9.742   1.001   6.220 -0.0728  0.0050 -0.0593
  125DSPC   NC3 1737   0.628   3.850   0.663  0.0105 -0.1194  0.1484
  125DSPC   PO4 1738   0.442   3.779   0.196  0.2030  0.1050  0.0827
  125DSPC   GL1 1739   0.862   3.800   0.122  0.1318  0.2293 -0.0070
  125DSPC   GL2 1740   1.074   3.574  -0.148  0.2268  0.1390  0.2063
  125DSPC   C1A 1741   1.371   3.930   0.051 -0.0150 -0.0691  0.2300
  125DSPC   C2A 1742   1.806   3.892  -0.113 -0.0335 -0.0132  0.0578
  125DSPC   C3A 1743   2.166   3.704  -0.298 -0.0398  0.0609  0.1702
  125DSPC   C4A 1744   2.521   3.331  -0.534 -0.1541 -0.0138  0.0466
  125DSPC   C5A 1745   2.696   2.929  -0.552 -0.2296 -0.2921 -0.3430
  125DSPC   C1B 1746   1.423   3.475  -0.301 -0.2068 -0.0132  0.0844
  125DSPC   C2B 1747   1.650   3.786  -0.609  0.2039 -0.0499  0.1836
  125DSPC   C3B 1748   1.890   3.747  -1.028 -0.1346  0.2420 -0.1377
  125DSPC   C4B 1749   1.935   4.037  -1.282 -0.1530 -0.1062  0.1314
  125DSPC   C5B 1750   1.613   4.277  -1.487  0.1199 -0.1874 -0.2039
  126DSPC   NC3 1751   0.638   2.834   5.459 -0.2988  0.1995 -0.1383
  126DSPC   PO4 1752   0.601   3.250   5.277 -0.4983  0.2370  0.1205
  126DSPC   GL1 1753   1.014   3.409   5.266 -0.1174  0.0621  0.1061
  126DSPC   GL2 1754   1.136   3.086   5.290  0.1022 -0.0434 -0.2209
  126DSPC   C1A 1755   1.374   3.309   4.951  0.0353  0.1523  0.2132
  126DSPC   C2A 1756   1.757   3.216   4.764 -0.1543  0.2163  0.2822
  126DSPC   C3A 1757   1.927   3.107   4.273 -0.0596  0.2068  0.0272
  126DSPC   C4A 1758   2.347   3.269   4.138 -0.1019  0.0522 -0.0364
  126DSPC   C5A 1759   2.605   3.158   3.866  0.1765 -0.4071  0.1149
  126DSPC   C1B 1760   1.227   2.743   4.991  0.1751 -0.0605 -0.1071
  126DSPC   C2B 1761   1.395   2.418   4.739 -0.0153  0.0210 -0.1835
  126DSPC   C3B 1762   1.810   2.221   4.546  0.1326 -0.2324  0.1394
  126DSPC   C4B 1763   2.014   1.818   4.373 -0.1370  0.2937 -0.2488
  126DSPC   C5B 1764   2.499   1.956   4.158  0.2726 -0.1169 -0.0843
  127DSPC   NC3 1765   5.117   4.063   5.305 -0.0998 -0.0391 -0.1487
  127DSPC   PO4 1766   4.836   3.956   5.581 -0.1355 -0.2919 -0.0505
  127DSPC   GL1 1767   4.374   3.877   5.522 -0.0863  0.3390  0.0759
  127DSPC   GL2 1768   4.102   3.639   5.316 -0.0694  0.0795  0.0423
  127DSPC   C1A 1769   4.062   4.158   5.492  0.3987  0.0406 -0.0651
  127DSPC   C2A 1770   3.803   4.257   5.088 -0.5150  0.1113 -0.1932
  127DSPC   C3A 1771   3.362   4.338   4.938 -0.2753  0.2226 -0.0979
  127DSPC   C4A 1772   3.000   4.525   5.001 -0.0145  0.3870  0.2233
  127DSPC   C5A 1773   3.010   4.929   5.026  0.1365 -0.2391 -0.1195
  127DSPC   C1B 1774   3.800   3.775   5.605  0.1696  0.3876  0.1132
  127DSPC   C2B 1775   3.541   3.999   5.919 -0.0745 -0.0582 -0.0541
  127DSPC   C3B 1776   3.098   4.139   5.946 -0.0372 -0.2407 -0.2159
  127DSPC   C4B 1777   2.713   3.877   5.785  0.1671  0.0655 -0.1534
  127DSPC   C5B 1778   2.697   3.806   5.394 -0.2878 -0.2263 -0.2267
  128DSPC   NC3 1779   4.552   2.173   5.103  0.0309  0.0140  0.0081
  128DSPC   PO4 1780   4.777   1.729   5.187  0.1539 -0.3577 -0.1486
  128DSPC   GL1 1781   4.296   1.791   5.197  0.1560 -0.4100  0.2732
  128DSPC   GL2 1782   4.067   1.786   4.840  0.0831  0.4243  0.0234
  128DSPC   C1A 1783   4.024   2.088   5.266  0.0909 -0.1135 -0.2791
  128DSPC   C2A 1784   3.632   2.149   5.374  0.0823  0.1194  0.0721
  128DSPC   C3A 1785   3.336   1.760   5.331  0.1046  0.2408 -0.1190
  128DSPC   C4A 1786   3.007   1.482   5.468 -0.0731 -0.1154  0.0355
  128DSPC   C5A 1787   2.780   1.119   5.401 -0.0749  0.1105 -0.4078
  128DSPC   C1B 1788   3.770   1.857   4.535 -0.1983  0.2857 -0.0206
  128DSPC   C2B 1789   3.369   1.868   4.426 -0.1587 -0.1241  0.0080
  128DSPC   C3B 1790   2.951   1.838   4.436 -0.0049  0.1534 -0.0808
  128DSPC   C4B 1791   2.751   1.385   4.232  0.0820 -0.3687  0.2212
  128DSPC   C5B 1792   2.556   1.029   4.089  0.1083  0.2436  0.2598
  129W        W 1793   5.481   1.113   3.805 -0.1735  0.0387 -0.2551
  130W        W 1794   6.006   5.487   4.063 -0.2363  0.1876 -0.0930
  131W        W 1795   6.329   0.435   1.937 -0.3026  0.0628  0.1620
  132W        W 1796   6.889   2.572   1.069 -0.2423  0.3143  0.1751
  133W        W 1797   4.639   4.859   2.977  0.2035  0.1196  0.2883
  134W        W 1798   6.676   3.522   5.280  0.1368  0.0017  0.2675
  135W        W 1799   5.841   3.397   2.132 -0.1884  0.0440  0.0322
  136W        W 1800   4.395   1.474   3.367 -0.2084 -0.3384  0.0133
  137W        W 1801   6.480   6.626   3.424  0.1225 -0.1701  0.2923
  138W        W 1802   4.519   2.688   4.981 -0.0603  0.0816 -0.1732
  139W        W 1803   0.184   5.892   4.007  0.1266 -0.0676 -0.0818
  140W        W 1804   5.314   6.029   1.884 -0.1974 -0.0234 -0.0706
  141W        W 1805   0.717   3.410   1.638 -0.0488 -0.1073 -0.0455
  142W        W 1806   6.530   2.885   1.331  0.1066  0.0488  0.0558
  143W        W 1807   4.965   0.852   1.243  0.1789 -0.5356  0.2732
  144W        W 1808   4.973   4.514   2.670 -0.1908 -0.3903 -0.0830
  145W        W 1809   5.924   5.512   0.166  0.5830  0.0063 -0.2565
  146W        W 1810   6.608   4.685   1.766  0.1191  0.1827 -0.2372
  147W        W 1811   5.760   6.407   1.702 -0.0272 -0.1291 -0.1417
  148W        W 1812   5.416   3.382   3.414  0.0086  0.1465 -0.1936
  149W        W 1813   6.718   3.095   1.701 -0.0796 -0.1457  0.0892
  150W        W 1814   0.399   0.221   3.271  0.0325  0.1672 -0.4096
  151W        W 1815   5.262   6.121   2.840  0.0944  0.0356  0.1692
  152W        W 1816   4.661   3.160   5.206 -0.1559 -0.3847  0.4772
  153W        W 1817   4.674   4.135   5.181  0.0222 -0.0668  0.1793
  154W        W 1818   0.340   1.998   1.922 -0.0733  0.0474 -0.1862
  155W        W 1819   6.669   2.312   3.365  0.0565  0.1776  0.0274
  156W        W 1820   5.244   0.923   0.336  0.1152 -0.0117 -0.2326
  157W        W 1821   5.314   5.023   4.862 -0.1462 -0.1553 -0.3197
  158W        W 1822   5.079   1.820   2.447  0.1059  0.3136 -0.0257
  159W        W 1823   4.767   5.357   1.230  0.1554  0.2440 -0.3744
  160W        W 1824   4.975   3.502   1.245 -0.0421 -0.1776 -0.2434
  161W        W 1825   0.808   5.115   4.083 -0.1989 -0.2291  0.0438
  162W        W 1826   6.644   3.708   1.734 -0.4490 -0.3285 -0.1650
  163W        W 1827   0.707   3.184   5.785  0.2835  0.1753  0.0222
  164W        W 1828   7.267   4.469   0.555 -0.1163  0.0179 -0.0939
  165W        W 1829   4.405   1.458   4.897 -0.0177  0.2309 -0.1589
  166W        W 1830   6.730   1.737   3.840 -0.0076 -0.2037  0.0380
  167W        W 1831   5.212   6.140   4.120 -0.1632 -0.0759 -0.0275
  168W        W 1832   6.392   5.307   2.062 -0.4187 -0.1181 -0.1337
  169W        W 1833   4.741   0.044   2.344 -0.1205 -0.0580  0.0385
  170W        W 1834   5.462   0.117   1.062 -0.0465 -0.0707  0.1157
  171W        W 1835   7.123   3.535   4.103  0.1884  0.1072  0.3492
  172W        W 1836   6.472   1.998   4.812 -0.0177 -0.2475 -0.2519
  173W        W 1837   0.725   0.265   0.602  0.2683 -0.1686  0.0137
  174W        W 1838   6.712   3.903   1.172  0.0422  0.2971  0.0923
  175W        W 1839   6.252   2.498   0.277 -0.0738 -0.1631  0.0380
  176W        W 1840   6.693   6.524   4.721 -0.1416 -0.0778  0.0058
  177W        W 1841   5.038   3.081   0.938 -0.0433  0.1151 -0.2361
  178W        W 1842   7.109   0.256   1.740 -0.1135 -0.1367 -0.0902
  179W        W 1843   6.788   4.906   1.091  0.1007 -0.0793  0.2652
  180W        W 1844   6.664   7.156   5.460  0.1567 -0.2906  0.1940
  181W        W 1845   6.102   0.612   4.511 -0.2718 -0.2220 -0.1722
  182W        W 1846   6.383   6.652   1.055  0.0442  0.1188  0.2263
  183W        W 1847   6.400   1.653   0.725  0.0287  0.1739  0.0970
  184W        W 1848   5.871   3.132   2.619 -0.0507  0.2359  0.2123
  185W        W 1849   5.123   2.473   3.914 -0.5834  0.1265  0.1450
  186W        W 1850   5.773   3.353   5.024 -0.1151  0.1232  0.3649
  187W        W 1851   6.999   3.213   4.571  0.1875 -0.2706 -0.1072
  188W        W 1852   7.167   0.732   1.979 -0.0342  0.1797  0.2920
  189W        W 1853   6.177   0.344   5.600 -0.0648 -0.3180  0.3139
  190W        W 1854   4.578   5.537   0.192  0.1076 -0.0693  0.0412
  191W        W 1855   7.104   5.220   4.718  0.5905 -0.1946 -0.1191
  192W        W 1856   5.121   2.513   0.947 -0.1525 -0.0045  0.1285
  193W        W 1857   0.531   0.184   1.203  0.0033 -0.3614  0.2960
  194W        W 1858   4.762   1.883   0.745  0.0385  0.1940 -0.0922
  195W        W 1859   0.321   5.652   5.204 -0.0946  0.0490 -0.0640
  196W        W 1860   5.281   6.513   3.791 -0.1109  0.3078  0.1635
  197W        W 1861   6.814   3.490   2.384  0.2225 -0.0264 -0.0712
  198W        W 1862   7.047   4.919   2.357  0.0518 -0.0130  0.2379
  199W        W 1863   6.516   6.567   5.313  0.1378 -0.3275 -0.0924
  200W        W 1864   7.038   1.638   3.023  0.1050  0.2432  0.0612
  201W        W 1865   6.348   4.850   0.902 -0.1217 -0.2484  0.1664
  202W        W 1866   0.211   0.981   2.133  0.2900 -0.2562  0.0266
  203W        W 1867   5.782   5.501   2.701 -0.2751  0.0977  0.0123
  204W        W 1868   7.225   1.534   2.045 -0.2169  0.1112  0.1868
  205W        W 1869   6.933   2.274   4.930 -0.0829  0.0371 -0.1056
  206W        W 1870   6.378   1.506   3.583  0.0669  0.1605 -0.0636
  207W        W 1871   0.101   2.424   3.430 -0.2475  0.0394 -0.0787
  208W        W 1872   6.313   5.144   5.074 -0.6434  0.0282  0.1600
  209W        W 1873   6.710   4.911   4.914 -0.0997  0.0358 -0.1087
  210W        W 1874   5.643   1.853   2.919 -0.0770 -0.0541  0.0081
  211W        W 1875   5.252   0.139   1.507  0.0434  0.0104 -0.2110
  212W        W 1876   4.913   0.810   5.442 -0.1722 -0.1975  0.0018
  213W        W 1877   5.904   4.039   3.889  0.1406  0.0014  0.2311
  214W        W 1878   6.607   2.023   2.258  0.1623  0.0991 -0.0111
  215W        W 1879   6.613   1.451   4.879  0.2118  0.0527 -0.1142
  216W        W 1880   4.938   6.628   4.996  0.0483 -0.0397  0.2000
  217W        W 1881   6.900   1.726   0.719 -0.3118  0.0137  0.3196
  218W        W 1882   6.713   0.861   0.530  0.0243 -0.0201 -0.0215
  219W        W 1883   5.622   3.629   3.900 -0.1733 -0.0017 -0.1023
  220W        W 1884   7.016   6.245   3.405 -0.0580  0.1650 -0.1032
  221W        W 1885   0.101   6.147   3.584  0.0103 -0.1917  0.1033
  222W        W 1886   0.189   1.466   5.257 -0.3486  0.0696 -0.1885
  223W        W 1887   4.011   3.359   3.620  0.0338  0.0385  0.1801
  224W        W 1888   7.281   0.669   1.404  0.3200 -0.0139 -0.1830
  225W        W 1889   4.658   5.847   1.198  0.0292  0.0454  0.3487
  226W        W 1890   6.436   0.592   3.676  0.0143  0.2208  0.1505
  227W        W 1891   4.927   1.981   3.843  0.3263 -0.0436 -0.2028
  228W        W 1892   5.683   2.206   1.683  0.3575 -0.1568  0.3486
  229W        W 1893   6.225   2.160   2.586 -0.1662  0.1762  0.0463
  230W        W 1894   5.626   6.396   2.203  0.1640  0.0719 -0.3415
  231W        W 1895   5.803   7.078   0.206  0.1461 -0.0415 -0.4404
  232W        W 1896   6.107   1.047   3.792 -0.0150 -0.0715  0.0289
  233W        W 1897   4.795   3.187   4.680 -0.2862  0.1036  0.2715
  234W        W 1898   6.358   1.157   5.789 -0.6284 -0.0317  0.1648
  235W        W 1899   5.656   5.845   4.054  0.4773 -0.0488 -0.1969
  236W        W 1900   6.470   1.075   4.639  0.2351  0.1658  0.2570
  237W        W 1901   6.298   7.248   3.213 -0.1227  0.3571 -0.1634
  238W        W 1902   6.324   3.016   3.957  0.0000 -0.4270  0.3150
  239W        W 1903   4.557   6.987   3.791  0.3498 -0.0996 -0.0396
  240W        W 1904   5.421   6.930   4.762 -0.1501  0.4239 -0.0666
  241W        W 1905   6.985   7.078   4.606  0.1343  0.1275 -0.0574
  242W        W 1906   6.510   7.119   0.851  0.0011 -0.1892  0.0141
  243W        W 1907   6.145   0.712   2.830  0.1334 -0.0497  0.0974
  244W        W 1908   6.087   5.263   5.492 -0.3539 -0.1026  0.1556
  245W        W 1909   5.449   6.911   4.212  0.1230 -0.1243 -0.0365
  246W        W 1910   6.971   0.247   4.816 -0.0829 -0.0309 -0.1110
  247W        W 1911   5.466   6.402   0.005  0.2416 -0.0378 -0.0487
  248W        W 1912   5.536   4.825   1.528  0.2312 -0.0976 -0.0888
  249W        W 1913   5.004   2.803   4.307  0.4969  0.0708 -0.0094
  250W        W 1914   5.773   6.390   5.467  0.3042  0.0981 -0.0017
  251W        W 1915   5.790   6.002   5.750  0.0327  0.0227  0.0887
  252W        W 1916   5.881   3.390   0.123  0.0771  0.2183 -0.0930
  253W        W 1917   6.716   3.633   4.684  0.1867 -0.1625 -0.1959
  254W        W 1918   6.092   6.479   3.724 -0.0471 -0.5810 -0.1381
  255W        W 1919   7.270   4.318   5.109 -0.1477  0.0996 -0.2078
  256W        W 1920   7.111   6.209   1.171 -0.0553  0.2020  0.0885
  257W        W 1921   6.737   5.036   0.561  0.0346  0.1412 -0.0137
  258W        W 1922   6.447   3.835   3.709  0.1166  0.0144  0.1829
  259W        W 1923   5.869   4.018   3.217  0.1230  0.0536 -0.0133
  260W        W 1924   6.099   5.928   4.345 -0.2446  0.3426  0.0512
  261W        W 1925   0.402   0.809   3.982  0.2131 -0.1044 -0.1193
  262W        W 1926   5.050   1.193   5.785  0.0453  0.1128  0.2282
  263W        W 1927   6.980   3.138   2.854  0.0493  0.1025  0.1313
  264W        W 1928   6.996   6.052   3.960 -0.0773 -0.2393 -0.3735
  265W        W 1929   0.333   2.950   0.552  0.0749 -0.0542 -0.0633
  266W        W 1930   7.087   0.181   0.874 -0.1096 -0.2509  0.0867
  267W        W 1931   5.487   2.464   5.402  0.0975 -0.2664 -0.2174
  268W        W 1932   6.039   6.499   2.590  0.0169  0.1788  0.1140
  269W        W 1933   5.555   3.720   0.339  0.3564  0.5235  0.0711
  270W        W 1934   7.207   1.143   0.512 -0.3277  0.1797 -0.2473
  271W        W 1935   5.254   0.764   3.468  0.3658 -0.0098 -0.0075
  272W        W 1936   0.247   0.360   5.000  0.3137  0.4089 -0.1369
  273W        W 1937   4.957   3.722   3.517 -0.0778 -0.1004  0.0519
  274W        W 1938   6.131   4.147   5.404  0.0164  0.0534 -0.0580
  275W        W 1939   5.326   3.545   5.204 -0.1607  0.0642  0.0473
  276W        W 1940   5.544   1.411   0.399 -0.1737 -0.2085  0.4588
  277W        W 1941   5.604   4.284   4.523  0.2242 -0.0358 -0.1171
  278W        W 1942   5.659   3.877   2.234 -0.1601 -0.0141 -0.3577
  279W        W 1943   5.159   3.238   0.386 -0.0327 -0.0498 -0.0164
  280W        W 1944   0.221   3.522   5.161 -0.1295 -0.1116  0.2807
  281W        W 1945   4.378   0.835   3.661 -0.2347  0.2975 -0.0734
  282W        W 1946   6.764   2.701   0.590 -0.0522 -0.0960 -0.3563
  283W        W 1947   0.194   3.333   0.150  0.3050  0.2468  0.1916
  284W        W 1948   5.134   7.332   5.693 -0.0748  0.2478  0.2778
  285W        W 1949   0.040   7.309   3.478 -0.2306 -0.0254  0.1620
  286W        W 1950   0.072   2.582   0.784 -0.0709 -0.0641  0.3295
  287W        W 1951   6.761   3.974   3.350 -0.1630  0.0053 -0.2359
  288W        W 1952   6.512   0.255   5.037  0.0972  0.1434 -0.0843
  289W        W 1953   6.666   0.921   1.705  0.1587 -0.0742  0.1369
  290W        W 1954   5.539   0.043   1.914 -0.2260 -0.0529  0.1044
  291W        W 1955   6.612   6.510   2.551  0.3048 -0.2379  0.1510
  292W        W 1956   6.951   3.543   0.868 -0.2016  0.0902  0.0466
  293W        W 1957   0.110   3.974   0.529 -0.4325  0.1668  0.0396
  294W        W 1958   5.679   6.186   0.421  0.0426 -0.1771  0.1211
  295W        W 1959   5.491   0.561   2.776  0.1539 -0.0684  0.3515
  296W        W 1960   4.957   4.180   4.749 -0.2580 -0.1110  0.0169
  297W        W 1961   5.721   1.847   0.647 -0.0694 -0.0136  0.2725
  298W        W 1962   6.518   2.855   3.157  0.1566 -0.2899 -0.1890
  299W        W 1963   4.665   2.783   1.034 -0.1783  0.3440 -0.4059
  300W        W 1964   5.857   1.345   5.681 -0.2445  0.0684  0.1473
  301W        W 1965   4.904   6.553   1.570  0.3152 -0.0035 -0.0266
  302W        W 1966   6.092   7.003   3.674 -0.0017  0.0315 -0.0026
  303W        W 1967   0.435   3.841   2.725  0.1705  0.0507  0.1957
  304W        W 1968   5.644   0.821   3.154 -0.1242 -0.0412  0.0496
  305W        W 1969   6.178   3.619   5.168 -0.0952 -0.0562  0.2116
  306W        W 1970   0.229   3.998   5.365 -0.0235 -0.0211  0.0895
  307W        W 1971   6.483   0.511   2.488 -0.0385  0.3020  0.0796
  308W        W 1972   5.662   1.582   2.001 -0.0463  0.1984  0.2838
  309W        W 1973   5.211   3.195   4.884 -0.2537 -0.0254  0.1696
  310W        W 1974   7.053   3.898   1.574 -0.0043  0.0482 -0.0824
  311W        W 1975   4.620   0.930   0.088  0.0417 -0.4615  0.2094
  312W        W 1976   6.568   4.947   2.789  0.1953 -0.1706  0.0520
  313W        W 1977   4.780   1.995   3.165 -0.2877 -0.2045  0.0774
  314W        W 1978   5.343   0.435   5.395  0.1754  0.2087  0.1448
  315W        W 1979   4.331   6.283   3.652  0.2412 -0.3725  0.0310
  316W        W 1980   0.805   0.567   1.473 -0.0206  0.0810 -0.1969
  317W        W 1981   5.185   0.843   2.356 -0.1021  0.0438  0.2082
  318W        W 1982   4.281   4.350   4.992 -0.0673 -0.2164 -0.1456
  319W        W 1983   5.792   6.564   4.546  0.0051  0.1422 -0.1360
  320W        W 1984   7.119   2.752   3.649  0.2006 -0.0351  0.1859
  321W        W 1985   6.897   6.308   5.638  0.1230  0.0742 -0.1438
  322W        W 1986   0.190   4.175   0.986  0.2469 -0.0887 -0.2534
  323W        W 1987   7.022   2.159   2.523  0.0351  0.0015  0.3434
  324W        W 1988   5.265   1.299   0.810 -0.0493 -0.1105 -0.2477
  325W        W 1989   7.028   2.749   1.565 -0.0004  0.1519  0.0561
  326W        W 1990   4.272   4.723   4.686  0.0064 -0.1575  0.0614
  327W        W 1991   6.808   0.711   4.999  0.0501  0.1103 -0.1118
  328W        W 1992   6.001   2.353   4.668  0.1477 -0.0369  0.1085
  329W        W 1993   7.272   7.131   3.026 -0.0472  0.0504  0.0393
  330W        W 1994   4.498   0.182   0.817  0.1921 -0.0887  0.1026
  331W        W 1995   5.717   6.338   3.997 -0.2252 -0.3321  0.1461
  332W        W 1996   6.782   1.342   2.019  0.3152 -0.1583  0.0894
  333W        W 1997   5.037   1.489   4.788 -0.4083  0.0353 -0.0013
  334W        W 1998   5.899   4.463   1.514 -0.0230 -0.1598  0.0057
  335W        W 1999   6.857   2.509   5.360 -0.1176 -0.1682  0.3212
  336W        W 2000   7.000   2.217   3.726 -0.2308 -0.1121  0.2492
  337W        W 2001   5.505   6.457   0.895 -0.0084  0.1253 -0.2272
  338W        W 2002   6.017   0.177   0.898 -0.2453  0.3224 -0.3398
  339W        W 2003   7.139   5.668   5.059 -0.3510  0.0070 -0.3182
  340W        W 2004   5.368   4.807   0.641 -0.1438 -0.0747  0.2075
  341W        W 2005   4.823   6.740   5.498  0.4074  0.0998 -0.0282
  342W        W 2006   4.787   4.234   0.169  0.1739  0.1729  0.2179
  343W        W 2007   4.502   5.361   5.265  0.3789  0.0588 -0.0726
  344W        W 2008   7.031   0.698   0.925  0.1306  0.3051  0.1303
  345W        W 2009   6.371   2.564   5.503 -0.1657  0.4032  0.1633
  346W        W 2010   6.585   2.463   2.838  0.2062 -0.1386 -0.0316
  347W        W 2011   5.187   3.563   1.694  0.1331  0.3186 -0.2842
  348W        W 2012   0.132   6.491   2.516 -0.0291 -0.0368  0.1865
  349W        W 2013   4.885   0.089   1.864  0.0111  0.0910  0.4001
  350W        W 2014   0.185   0.697   3.524 -0.0584  0.0420 -0.1832
  351W        W 2015   7.071   5.559   2.427 -0.1969  0.0693  0.0056
  352W        W 2016   4.913   7.040   4.260  0.1551  0.0944 -0.2230
  353W        W 2017   4.484   2.784   3.408  0.1953  0.3813 -0.2801
  354W        W 2018   7.136   6.007   0.116 -0.1026  0.1636 -0.0370
  355W        W 2019   5.094   2.561   4.732 -0.0523  0.0514 -0.0742
  356W        W 2020   6.277   4.154   2.847 -0.0234  0.0123 -0.1522
  357W        W 2021   6.621   6.715   5.793  0.0224 -0.1567  0.4575
  358W        W 2022   6.651   1.851   3.317  0.1562  0.0385 -0.1864
  359W        W 2023   4.553   1.055   1.518  0.0409  0.3022 -0.1555
  360W        W 2024   0.408   6.849   2.156  0.0212  0.0679  0.1127
  361W        W 2025   6.344   6.158   2.797  0.0691  0.0207 -0.1205
  362W        W 2026   5.739   0.537   5.684 -0.0112 -0.0844 -0.3453
  363W        W 2027   6.436   6.376   0.440  0.0468  0.1272 -0.2635
  364W        W 2028   4.464   1.932   0.336 -0.0763 -0.1934 -0.1516
  365W        W 2029   6.108   4.780   5.423 -0.3616  0.0892 -0.2175
  366W        W 2030   5.964   6.938   1.975  0.2487 -0.1346 -0.2101
  367W        W 2031   5.814   4.573   2.330 -0.0165 -0.1588 -0.2004
  368W        W 2032   5.955   7.019   0.739  0.1789  0.2528  0.0032
  369W        W 2033   4.879   1.617   3.425  0.2130  0.2016  0.1601
  370W        W 2034   6.647   3.526   4.167  0.0133  0.1829  0.0271
  371W        W 2035   5.290   1.799   4.557 -0.4923  0.1102  0.0007
  372W        W 2036   4.948   6.541   1.013 -0.0042 -0.0085  0.2280
  373W        W 2037   0.583   1.283   4.764  0.0054 -0.3171  0.0841
  374W        W 2038   5.363   0.095   3.914 -0.0319  0.2171 -0.1278
  375W        W 2039   4.224   0.196   2.290  0.0160  0.0457 -0.1341
  376W        W 2040   5.560   2.676   4.148 -0.0147 -0.0601  0.3640
  377W        W 2041   6.333   4.362   3.886  0.1448 -0.0929 -0.4882
  378W        W 2042   5.528   0.293   3.429 -0.1786 -0.1953 -0.0436
  379W        W 2043   4.367   6.448   2.401  0.1258  0.2032  0.1340
  380W        W 2044   6.039   4.100   0.377 -0.0241  0.1621 -0.5156
  381W        W 2045   6.797   3.667   0.055 -0.0744 -0.3141  0.0656
  382W        W 2046   6.055   5.294   1.118  0.1251  0.0583 -0.0386
  383W        W 2047   7.157   1.726   5.524  0.1267 -0.3973 -0.3517
  384W        W 2048   6.126   7.103   1.221 -0.1035  0.0395  0.5389
  385W        W 2049   5.176   4.944   5.762 -0.0630  0.0558  0.1644
  386W        W 2050   4.726   5.597   4.881 -0.1533  0.1454  0.1326
  387W        W 2051   4.712   5.511   3.528  0.0615 -0.1493 -0.1604
  388W        W 2052   6.891   1.858   4.675 -0.1005 -0.0755 -0.0445
  389W        W 2053   7.217   1.566   4.345  0.1902  0.2288  0.1315
  390W        W 2054   0.294   0.303   4.358 -0.1227  0.1012 -0.2247
  391W        W 2055   6.428   3.429   1.269  0.1568  0.2522  0.4659
  392W        W 2056   5.129   3.653   3.978 -0.1599  0.2561 -0.0791
  393W        W 2057   4.801   5.328   4.093 -0.3976 -0.0546  0.1587
  394W        W 2058   5.634   5.023   2.705  0.0059 -0.0297 -0.1135
  395W        W 2059   6.437   5.238   4.086 -0.2017  0.0024 -0.1457
  396W        W 2060   6.619   0.380   4.497  0.1614 -0.1559 -0.3665
  397W        W 2061   5.702   7.033   1.492  0.1207 -0.2729  0.0152
  398W        W 2062   5.686   0.160   0.560 -0.3059 -0.1091  0.3242
  399W        W 2063   6.493   4.047   0.064 -0.0073 -0.4090 -0.1215
  400W        W 2064   5.933   1.767   1.560 -0.1055  0.2193 -0.2314
  401W        W 2065   5.879   7.036   2.903 -0.3366  0.0978 -0.2200
  402W        W 2066   5.312   2.167   1.321  0.2846  0.0556  0.0149
  403W        W 2067   0.093   1.303   4.704  0.2408  0.3502 -0.2011
  404W        W 2068   0.224   7.318   5.435 -0.0016  0.1334  0.1427
  405W        W 2069   5.685   0.652   3.841 -0.1426  0.1466 -0.3310
  406W        W 2070   5.579   3.467   0.988  0.3234 -0.0544 -0.1206
  407W        W 2071   5.759   5.326   1.530 -0.2912 -0.1984 -0.2507
  408W        W 2072   6.175   7.245   5.309 -0.2088 -0.0235  0.5751
  409W        W 2073   5.236   6.618   1.995  0.4925 -0.0686  0.1534
  410W        W 2074   6.268   3.561   0.354 -0.0075  0.2452  0.2850
  411W        W 2075   6.154   5.113   3.004 -0.2997 -0.0309  0.1365
  412W        W 2076   7.037   3.125   0.171  0.0199 -0.3230 -0.0874
  413W        W 2077   4.239   4.708   4.205  0.1387  0.1004 -0.0778
  414W        W 2078   6.064   6.027   3.881 -0.8203 -0.1270  0.4770
  415W        W 2079   5.569   3.414   2.985  0.2091  0.1237 -0.1104
  416W        W 2080   6.441   5.338   5.826 -0.0864  0.1321  0.0763
  417W        W 2081   5.916   1.423   0.701 -0.1990 -0.3068  0.2192
  418W        W 2082   6.274   4.141   1.331  0.2896  0.1272 -0.0253
  419W        W 2083   6.251   4.559   4.835  0.2878  0.1501  0.0132
  420W        W 2084   5.072   4.600   3.755  0.1360 -0.2566 -0.0954
  421W        W 2085   7.308   3.255   3.691  0.1749  0.1212 -0.1313
  422W        W 2086   6.083   0.256   3.578  0.1790 -0.0357 -0.0297
  423W        W 2087   5.287   5.418   2.890 -0.0587 -0.1103 -0.1043
  424W        W 2088   4.472   4.308   5.611  0.0564  0.1315  0.1014
  425W        W 2089   4.663   0.760   4.675 -0.1575  0.1851 -0.0421
  426W        W 2090   0.552   5.164   1.509 -0.0455 -0.1764 -0.1811
  427W        W 2091   6.022   0.197   4.921  0.0918 -0.4750  0.0962
  428W        W 2092   4.452   3.298   1.063 -0.0277 -0.0903  0.1052
  429W        W 2093   5.175   6.991   1.705 -0.0424 -0.1244 -0.1663
  430W        W 2094   7.287   7.077   2.157 -0.0906  0.0944  0.2781
  431W        W 2095   6.608   3.973   5.430 -0.0802 -0.2178 -0.0648
  432W        W 2096   0.014   6.479   3.980 -0.0110  0.2498  0.0950
  433W        W 2097   5.336   2.772   5.834 -0.0749 -0.3161 -0.0269
  434W        W 2098   7.122   4.806   5.231  0.1293 -0.1112  0.1923
  435W        W 2099   7.335   6.312   4.521  0.0666 -0.0415  0.2786
  436W        W 2100   5.890   4.989   4.113 -0.1390 -0.0999  0.2424
  437W        W 2101   6.076   2.994   3.462 -0.4941 -0.1212 -0.3591
  438W        W 2102   5.437   4.544   2.812 -0.1513 -0.0486 -0.1929
  439W        W 2103   6.593   2.036   4.296 -0.0681  0.2552  0.0709
  440W        W 2104   5.822   4.239   2.733  0.3110  0.0068 -0.0384
  441W        W 2105   5.233   0.735   4.032  0.0837  0.1104 -0.2141
  442W        W 2106   7.210   0.054   0.283 -0.0257 -0.0676 -0.2758
  443W        W 2107   5.624   0.044   5.129 -0.1833 -0.1130  0.2002
  444W        W 2108   6.997   1.682   2.422 -0.0878  0.0954  0.2601
  445W        W 2109   6.899   5.725   5.585 -0.1409 -0.0638  0.0729
  446W        W 2110   4.975   6.059   0.776 -0.2165  0.0035  0.0486
  447W        W 2111   0.506   2.582   4.138 -0.4851 -0.0721 -0.2928
  448W        W 2112   7.317   3.162   1.648 -0.0820 -0.0724  0.1780
  449W        W 2113   0.076   4.984   0.918  0.2773 -0.1564  0.0231
  450W        W 2114   6.446   7.319   3.990  0.2649  0.1333 -0.2778
  451W        W 2115   5.233   0.338   0.599 -0.3398  0.1083 -0.0209
  452W        W 2116   6.070   3.262   3.063 -0.0535  0.0949  0.1739
  453W        W 2117   6.892   2.067   1.315  0.0257  0.0814 -0.1127
  454W        W 2118   0.831   2.423   5.094  0.1634 -0.0219 -0.4808
  455W        W 2119   7.230   2.078   2.066 -0.1368 -0.0335 -0.0093
  456W        W 2120   4.997   3.680   0.191  0.0155  0.0905  0.1006
  457W        W 2121   5.002   2.978   5.560  0.0270 -0.2661 -0.0352
  458W        W 2122   7.218   0.605   0.469 -0.2961 -0.0542  0.2235
  459W        W 2123   7.294   6.839   0.156 -0.3470 -0.0406 -0.2674
  460W        W 2124   6.525   6.186   0.929 -0.1464 -0.3233  0.1483
  461W        W 2125   4.681   4.976   0.751  0.0270 -0.1652 -0.2280
  462W        W 2126   4.967   0.493   4.385  0.3049  0.0695  0.3989
  463W        W 2127   6.932   6.059   0.610  0.2727 -0.0009 -0.1315
  464W        W 2128   6.280   3.815   2.083  0.0332  0.0854  0.0684
  465W        W 2129   6.333   2.128   5.774 -0.0046 -0.0120  0.0891
  466W        W 2130   5.717   1.784   0.099  0.1104  0.1485 -0.1540
  467W        W 2131   6.158   3.060   5.348  0.2802  0.2558  0.0305
  468W        W 2132   6.783   7.132   2.358  0.0715  0.1773  0.3859
  469W        W 2133   5.202   4.391   5.763 -0.0921  0.1334  0.0411
  470W        W 2134   5.464   5.762   0.223  0.1392 -0.2603 -0.2374
  471W        W 2135   6.939   5.259   1.949 -0.1284 -0.0415 -0.2104
  472W        W 2136   5.127   1.722   0.485  0.1451  0.0546 -0.0401
  473W        W 2137   6.557   2.178   0.721  0.0623  0.0297 -0.2596
  474W        W 2138   5.960   1.963   2.232 -0.1286 -0.2857  0.1396
  475W        W 2139   4.612   6.980   1.477  0.0245 -0.0045  0.2624
  476W        W 2140   5.004   1.013   4.417 -0.0334  0.0740  0.0548
  477W        W 2141   5.185   3.020   3.894 -0.1270  0.0825 -0.1035
  478W        W 2142   5.548   2.288   4.933  0.0217  0.0295  0.3079
  479W        W 2143   4.678   3.087   2.463  0.0438 -0.1536  0.2635
  480W        W 2144   5.505   1.102   1.213 -0.1297 -0.1045 -0.0339
  481W        W 2145   7.162   5.565   3.882  0.0485 -0.1816  0.1796
  482W        W 2146   5.765   2.885   3.050 -0.0396  0.3604 -0.3046
  483W        W 2147   6.363   4.833   2.308 -0.0404  0.2712 -0.2522
  484W        W 2148   6.577   5.378   2.512 -0.1462  0.2161 -0.0502
  485W        W 2149   7.070   5.481   3.326 -0.3689  0.1087  0.1530
  486W        W 2150   6.542   0.282   1.010  0.0939 -0.0136 -0.0839
  487W        W 2151   7.016   4.144   2.810  0.2744  0.0388 -0.2046
  488W        W 2152   5.868   2.278   5.689 -0.2199 -0.0580 -0.4804
  489W        W 2153   4.948   3.505   5.530 -0.0151 -0.0251 -0.1186
  490W        W 2154   0.341   1.879   5.565  0.1989  0.0321  0.2519
  491W        W 2155   6.222   0.025   4.495 -0.1278 -0.2451 -0.0304
  492W        W 2156   6.733   6.677   0.688 -0.0374  0.2602 -0.0701
  493W        W 2157   5.253   5.662   4.777  0.0377 -0.2276  0.1498
  494W        W 2158   6.869   1.261   0.867 -0.2807 -0.0186 -0.3507
  495W        W 2159   7.096   0.693   4.576  0.2072  0.2024 -0.2755
  496W        W 2160   6.476   2.302   1.386  0.0877 -0.1719  0.2157
  497W        W 2161   6.548   1.476   2.451  0.3691  0.0400  0.0459
  498W        W 2162   6.485   7.152   4.856  0.0571  0.1032  0.2962
  499W        W 2163   4.990   6.652   2.477  0.3566 -0.2321 -0.0073
  500W        W 2164   6.117   4.330   4.321 -0.2189 -0.0225 -0.1188
  501W        W 2165   5.514   1.753   3.396  0.1569  0.0109 -0.1799
  502W        W 2166   6.397   2.641   0.905  0.0370 -0.0688  0.1594
  503W        W 2167   6.177   5.007   1.602 -0.2080 -0.1544  0.0538
  504W        W 2168   6.822   0.773   0.025 -0.1588  0.5897 -0.3337
  505W        W 2169   6.599   4.899   5.423  0.2034 -0.0140 -0.1125
  506W        W 2170   6.900   2.978   2.155  0.2082 -0.2079 -0.0462
  507W        W 2171   0.021   1.592   0.674  0.1940 -0.0293 -0.1322
  508W        W 2172   5.398   3.947   4.861 -0.0193  0.0108  0.0403
  509W        W 2173   6.875   6.071   4.526 -0.1180 -0.0304 -0.3334
  510W        W 2174   5.631   0.532   2.288  0.0559 -0.1226 -0.0581
  511W        W 2175   4.522   1.514   1.431 -0.3226 -0.1308  0.2191
  512W        W 2176   6.224   1.190   4.223 -0.1602 -0.1087 -0.1737
  513W        W 2177   7.194   4.781   4.353 -0.3057 -0.0576  0.0386
  514W        W 2178   5.671   0.396   4.270 -0.0869  0.1543 -0.2002
  515W        W 2179   5.846   0.260   1.355 -0.3114 -0.0761 -0.2745
  516W        W 2180   6.575   6.064   3.192 -0.2155 -0.1023 -0.3601
  517W        W 2181   5.736   3.121   3.990 -0.1585  0.3748  0.1568
  518W        W 2182   5.787   3.133   4.558 -0.0218 -0.0085  0.0984
  519W        W 2183   5.197   1.359   2.225 -0.1776  0.0119  0.3538
  520W        W 2184   5.301   1.013   4.820 -0.1660 -0.0202 -0.1163
  521W        W 2185   6.851   5.616   2.860 -0.1729 -0.2359  0.2529
  522W        W 2186   6.857   6.686   1.131  0.1315 -0.2154 -0.0523
  523W        W 2187   7.066   3.880   5.294 -0.3523 -0.1157  0.1894
  524W        W 2188   4.522   3.756   3.058  0.1981 -0.0393 -0.0437
  525W        W 2189   5.626   3.013   0.367  0.2991 -0.0303  0.0696
  526W        W 2190   5.728   1.064   2.067  0.2017  0.3402 -0.3518
  527W        W 2191   0.069   5.426   1.846  0.0475 -0.0255 -0.4098
  528W        W 2192   5.190   1.732   3.012 -0.0863  0.0118  0.0747
  529W        W 2193   5.614   0.099   2.507 -0.0567 -0.2150 -0.3170
  530W        W 2194   5.924   6.034   0.913  0.3537 -0.0056 -0.1713
  531W        W 2195   4.547   2.998   3.835  0.0311  0.0019 -0.1228
  532W        W 2196   7.093   6.812   2.596 -0.2346 -0.2428  0.0773
  533W        W 2197   6.204   4.556   0.420 -0.1683  0.0201  0.2917
  534W        W 2198   4.986   2.586   5.219 -0.0317 -0.2549 -0.0912
  535W        W 2199   5.252   4.982   4.154  0.0931  0.0506 -0.3757
  536W        W 2200   7.081   3.518   1.962  0.1004 -0.1999  0.2489
  537W        W 2201   5.542   3.981   0.775  0.1740 -0.2687  0.0126
  538W        W 2202   7.183   0.892   3.242  0.0674  0.0210 -0.4382
  539W        W 2203   6.934   6.177   2.828  0.2261  0.2703 -0.2677
  540W        W 2204   5.632   0.916   4.340  0.1573 -0.0184 -0.0930
  541W        W 2205   5.382   4.069   2.918 -0.1996 -0.1510 -0.1266
  542W        W 2206   6.292   5.580   1.555  0.2633 -0.0034 -0.2457
  543W        W 2207   5.692   0.569   0.869  0.2638  0.0720  0.0990
  544W        W 2208   5.574   5.184   4.459 -0.2415 -0.3356 -0.0170
  545W        W 2209   6.248   1.689   4.084 -0.0731 -0.1350  0.4170
  546W        W 2210   6.624   3.956   0.513 -0.3634  0.0342 -0.1382
  547W        W 2211   6.172   5.779   2.464  0.1544  0.1286 -0.0987
  548W        W 2212   0.611   1.287   0.137  0.0530 -0.2315 -0.0658
  549W        W 2213   6.496   1.036   5.233 -0.0833 -0.0468 -0.1677
  550W        W 2214   5.871   4.551   3.121  0.2611  0.3234  0.0020
  551W        W 2215   0.492   5.862   3.312  0.0027  0.0050 -0.0606
  552W        W 2216   5.746   3.834   5.231  0.2585 -0.0355  0.2216
  553W        W 2217   6.289   2.125   3.066  0.0411 -0.0299 -0.1145
  554W        W 2218   0.326   5.242   3.960 -0.4085  0.1338 -0.1029
  555W        W 2219   6.592   1.080   3.759  0.3196  0.0531 -0.0801
  556W        W 2220   0.839   2.822   0.377  0.0702  0.2109  0.2158
  557W        W 2221   7.074   3.017   5.118  0.2653 -0.0930  0.1652
  558W        W 2222   5.234   1.628   3.896 -0.1174  0.1502  0.1973
  559W        W 2223   6.307   3.127   5.824 -0.1502  0.3188  0.2935
  560W        W 2224   5.405   2.336   2.316  0.0062 -0.3069  0.0464
  561W        W 2225   6.878   0.118   3.184 -0.0560 -0.1029 -0.4549
  562W        W 2226   5.741   5.906   1.740 -0.5081 -0.0693 -0.0971
  563W        W 2227   5.918   2.480   2.236  0.1713  0.0728 -0.2827
  564W        W 2228   5.775   3.405   5.468 -0.0545 -0.0720 -0.1584
  565W        W 2229   5.770   6.116   2.784 -0.2701 -0.0404  0.0659
  566W        W 2230   0.554   3.421   4.810 -0.0365 -0.0790  0.0671
  567W        W 2231   7.062   3.511   4.960 -0.0904 -0.4760  0.2275
  568W        W 2232   6.132   1.498   5.096  0.4037 -0.1422 -0.0844
  569W        W 2233   6.445   5.790   0.678 -0.4245  0.3266  0.1170
  570W        W 2234   0.393   5.985   4.517 -0.1232  0.3490  0.3165
  571W        W 2235   6.510   0.954   2.219 -0.0037  0.1144  0.2820
  572W        W 2236   6.892   6.489   0.282  0.2968  0.2325  0.1438
  573W        W 2237   6.468   0.449   3.216 -0.0806  0.0932 -0.0527
  574W        W 2238   5.556   4.608   4.014  0.1233 -0.1674  0.1312
  575W        W 2239   5.037   5.706   2.579 -0.2505  0.1503 -0.0365
  576W        W 2240   5.913   4.784   1.126 -0.0573 -0.0806 -0.0185
  577W        W 2241   0.056   3.966   2.038  0.0942 -0.0045  0.0202
  578W        W 2242   6.653   5.200   3.259 -0.0267 -0.2657  0.3411
  579W        W 2243   6.947   6.529   4.251  0.0905 -0.0433 -0.2001
  580W        W 2244   6.518   3.089   2.632  0.0280  0.0989 -0.0158
  581W        W 2245   6.773   1.883   5.230 -0.0496  0.2207 -0.3280
  582W        W 2246   6.132   5.323   3.515  0.1102 -0.0257 -0.0656
  583W        W 2247   5.339   3.670   2.610 -0.0117 -0.2302 -0.1528
  584W        W 2248   5.082   0.612   5.013  0.1638 -0.0747 -0.2439
  585W        W 2249   5.718   2.203   3.280 -0.1316 -0.1131  0.1112
  586W        W 2250   0.769   2.907   3.803 -0.4135  0.4981 -0.0181
  587W        W 2251   5.347   5.273   2.395  0.0081  0.1689 -0.3642
  588W        W 2252   4.704   5.701   4.402 -0.3887  0.1624  0.3218
  589W        W 2253   6.460   4.916   3.746 -0.1811  0.1285 -0.1074
  590W        W 2254   7.245   4.555   3.714  0.0611 -0.0579 -0.0469
  591W        W 2255   7.175   2.993   0.639  0.0708 -0.2716  0.0284
  592W        W 2256   7.238   0.483   5.812 -0.0456  0.0556  0.1820
  593W        W 2257   6.993   2.137   3.010 -0.0352  0.0181 -0.1313
  594W        W 2258   7.330   3.912   4.376  0.1447 -0.3568  0.3655
  595W        W 2259   6.083   4.649   1.953 -0.0659  0.3943  0.0260
  596W        W 2260   4.896   4.052   2.722  0.2612 -0.2843  0.0826
  597W        W 2261   6.052   1.225   3.005  0.0293  0.3000  0.1575
  598W        W 2262   6.099   2.534   3.344 -0.3862 -0.1882  0.2400
  599W        W 2263   0.267   0.507   0.802  0.2975  0.1978 -0.2017
  600W        W 2264   5.611   2.961   5.371 -0.0484  0.1179 -0.0661
  601W        W 2265   6.948   5.068   3.989  0.3556  0.1281  0.1681
  602W        W 2266   5.947   3.944   4.742  0.1132 -0.1404  0.0158
  603W        W 2267   7.071   5.328   0.770  0.1177  0.2247  0.1298
  604W        W 2268   7.270   2.259   1.582  0.0561 -0.4082 -0.4316
  605W        W 2269   6.962   5.252   5.202  0.0513 -0.3982 -0.2847
  606W        W 2270   7.128   3.583   0.433 -0.3618  0.2064 -0.0153
  607W        W 2271   4.537   6.624   4.733  0.0955  0.1012 -0.0453
  608W        W 2272   5.362   4.273   2.419  0.2115 -0.3264  0.2246
  609W        W 2273   4.630   3.622   5.193  0.3173  0.3528 -0.0917
  610W        W 2274   6.677   5.500   4.883  0.3667  0.0686 -0.1146
  611W        W 2275   6.652   5.125   1.530  0.2586 -0.3148 -0.0094
  612W        W 2276   0.521   1.023   5.545 -0.2043  0.1577 -0.1143
  613W        W 2277   5.152   4.424   1.488  0.2845 -0.4161  0.0072
  614W        W 2278   4.751   4.836   1.479  0.0053  0.1127  0.4964
  615W        W 2279   6.915   4.881   3.483  0.0347  0.3985 -0.1009
  616W        W 2280   4.622   1.251   4.509  0.2130  0.1805  0.1203
  617W        W 2281   5.500   1.670   1.154  0.4116 -0.0090  0.0821
  618W        W 2282   6.031   6.525   5.037 -0.0931  0.2950 -0.1493
  619W        W 2283   6.947   5.501   1.533  0.0667 -0.0480 -0.4151
  620W        W 2284   6.294   6.768   4.492  0.0832  0.3548  0.2933
  621W        W 2285   5.211   7.189   2.252  0.0691  0.0933  0.4825
  622W        W 2286   6.277   2.048   5.288  0.1863  0.3784 -0.1624
  623W        W 2287   4.496   2.906   4.336 -0.3699 -0.1397 -0.1378
  624W        W 2288   7.213   6.651   4.840  0.0960 -0.2205 -0.3140
  625W        W 2289   0.922   6.813   2.059  0.1346 -0.2943  0.0399
  626W        W 2290   6.968   6.689   2.122  0.5624 -0.2252  0.0240
  627W        W 2291   5.484   5.882   3.169  0.0417 -0.0475 -0.1428
  628W        W 2292   0.471   3.188   3.445  0.5644 -0.1823 -0.1364
  629W        W 2293   0.557   4.679   1.084  0.1700 -0.0337 -0.0952
  630W        W 2294   5.519   3.008   2.305 -0.0101 -0.1470  0.0215
  631W        W 2295   7.023   1.762   1.701  0.0495 -0.2554  0.1996
  632W        W 2296   5.487   0.557   4.711 -0.0364  0.0600  0.1264
  633W        W 2297   4.807   0.109   0.314 -0.4903  0.2212 -0.0695
  634W        W 2298   6.148   1.541   0.305 -0.0254 -0.0389  0.2553
  635W        W 2299   5.120   6.151   4.807  0.0803 -0.4577  0.2155
  636W        W 2300   6.401   4.722   4.294  0.2726  0.2447 -0.1154
  637W        W 2301   5.837   7.218   3.346 -0.0435 -0.0753 -0.2110
  638W        W 2302   0.133   3.712   3.620 -0.0399 -0.0688 -0.2249
  639W        W 2303   6.961   6.771   5.398 -0.3425  0.3060  0.0108
  640W        W 2304   5.326   1.314   4.382  0.1130 -0.1572  0.1468
  641W        W 2305   0.298   2.294   1.170 -0.0340 -0.2511 -0.1085
  642W        W 2306   5.867   1.288   3.456 -0.0604 -0.0928 -0.2114
  643W        W 2307   4.281   3.801   4.870 -0.2145  0.0415  0.3745
  644W        W 2308   5.097   6.145   2.313 -0.0631  0.0573 -0.2291
  645W        W 2309   5.144   1.297   2.730 -0.1025 -0.0441  0.2204
  646W        W 2310   5.964   0.184   0.113 -0.0564 -0.0527 -0.1685
  647W        W 2311   5.636   1.054   2.593  0.0515 -0.2735 -0.1386
  648W        W 2312   5.313   4.207   0.391 -0.2913  0.3441 -0.1043
  649W        W 2313   7.100   0.107   3.860  0.0398  0.1872 -0.1672
  650W        W 2314   7.166   4.511   1.872 -0.2042  0.2070 -0.2015
  651W        W 2315   7.272   1.699   3.739  0.1641 -0.1869 -0.0129
  652W        W 2316   5.398   2.234   0.045 -0.2173 -0.1689 -0.1339
  653W        W 2317   5.476   4.469   3.518  0.1867 -0.2623  0.1181
  654W        W 2318   6.695   5.375   3.707 -0.0100 -0.2364  0.1457
  655W        W 2319   7.278   0.403   3.130 -0.4068 -0.1293 -0.0402
  656W        W 2320   6.721   2.321   0.293  0.2335  0.2115  0.0570
  657W        W 2321   0.191   3.293   0.909  0.1680 -0.0739  0.0044
  658W        W 2322   0.043   4.951   5.635  0.1278 -0.0396  0.1721
  659W        W 2323   6.259   3.826   0.849 -0.0587 -0.0327 -0.0479
  660W        W 2324   6.825   5.557   0.375  0.2657  0.3825  0.1252
  661W        W 2325   7.174   6.974   0.630  0.0260  0.1979 -0.1983
  662W        W 2326   5.028   6.944   3.762 -0.4313 -0.0042  0.0635
  663W        W 2327   0.382   2.998   4.511 -0.1224  0.1550  0.2999
  664W        W 2328   4.965   1.231   3.913  0.1322  0.4308 -0.0791
  665W        W 2329   6.828   2.069   5.707  0.1064 -0.1228 -0.0709
  666W        W 2330   5.782   0.483   1.827  0.3452 -0.1925  0.0719
  667W        W 2331   5.692   3.022   1.705 -0.0421 -0.0027 -0.0928
  668W        W 2332   6.050   2.719   4.388  0.0735  0.1389  0.2056
  669W        W 2333   6.913   6.989   4.047  0.3288  0.0862  0.1513
  670W        W 2334   6.892   2.702   4.148  0.0069  0.0049  0.2365
  671W        W 2335   6.000   1.033   1.081  0.0846  0.0528 -0.7217
  672W        W 2336   5.309   7.063   3.267  0.2076 -0.2602 -0.0030
  673W        W 2337   5.639   1.559   2.496  0.1377  0.1569  0.2234
  674W        W 2338   5.735   1.724   4.358  0.3107 -0.3763  0.1850
  675W        W 2339   6.346   5.607   2.933 -0.1719 -0.0562 -0.0457
  676W        W 2340   6.601   4.253   4.489 -0.2618  0.3514  0.2855
  677W        W 2341   6.152   2.050   1.095  0.1106 -0.1284  0.0962
  678W        W 2342   7.198   6.519   0.781 -0.0580  0.4440 -0.0535
  679W        W 2343   5.832   5.045   0.610 -0.3077  0.1440  0.0052
  680W        W 2344   5.619   1.386   3.056  0.0089 -0.1829  0.1835
  681W        W 2345   6.017   5.874   3.099  0.4279 -0.0850 -0.1433
  682W        W 2346   5.072   2.786   3.509  0.1284  0.2204 -0.3548
  683W        W 2347   6.999   2.634   2.574  0.3348  0.0963 -0.0476
  684W        W 2348   6.179   1.522   4.580 -0.2367  0.2593  0.0110
  685W        W 2349   4.425   7.165   4.256 -0.0482 -0.1217  0.2579
  686W        W 2350   7.274   5.817   4.441 -0.2501  0.1255 -0.3218
  687W        W 2351   5.556   5.749   2.256  0.0903 -0.0668  0.0919
  688W        W 2352   5.147   6.409   5.361  0.2018  0.1466 -0.2849
  689W        W 2353   0.684   3.305   0.946  0.0723 -0.0492 -0.2318
  690W        W 2354   7.050   6.230   4.922  0.1909 -0.0701 -0.2702
  691W        W 2355   4.971   4.134   4.213  0.2560  0.0885  0.2781
  692W        W 2356   6.791   0.673   2.938  0.3084 -0.0889 -0.2225
  693W        W 2357   6.252   3.883   4.332 -0.4172  0.1684 -0.0239
  694W        W 2358   5.136   4.527   4.469  0.0029 -0.3776 -0.0404
  695W        W 2359   4.621   4.522   3.523  0.4486 -0.0385  0.0139
  696W        W 2360   7.154   2.820   5.631  0.0000 -0.1898 -0.0916
  697W        W 2361   6.901   0.756   2.430 -0.1102  0.0039  0.3116
  698W        W 2362   6.621   6.254   2.055  0.0388  0.3378  0.1422
  699W        W 2363   5.212   7.006   1.207  0.0220 -0.3360 -0.0373
  700W        W 2364   7.228   0.926   4.956 -0.0501  0.0160  0.1461
  701W        W 2365   5.925   5.563   2.013 -0.0655  0.1816  0.1599
  702W        W 2366   5.864   3.849   5.783 -0.1902  0.0034 -0.3390
  703W        W 2367   0.187   2.480   4.470 -0.0827  0.2874  0.2509
  704W        W 2368   6.626   1.904   2.768 -0.3385 -0.1281  0.0422
  705W        W 2369   6.831   5.743   1.070  0.0029 -0.2254  0.2070
  706W        W 2370   5.117   4.211   0.840  0.0655 -0.0738 -0.0542
  707W        W 2371   0.612   1.937   5.196  0.1423  0.2300 -0.0017
  708W        W 2372   7.067   4.620   2.780 -0.1205 -0.0814 -0.0389
  709W        W 2373   4.541   4.215   4.532 -0.4165 -0.0944  0.0781
  710W        W 2374   5.545   6.988   3.717 -0.1058  0.1691 -0.1419
  711W        W 2375   0.317   4.841   3.561  0.1480 -0.0843 -0.3581
  712W        W 2376   4.931   6.930   2.989  0.1884  0.2805  0.0916
  713W        W 2377   5.799   6.701   3.343 -0.3738 -0.2544 -0.0168
  714W        W 2378   5.960   4.705   3.669  0.3034  0.0262 -0.0015
  715W        W 2379   6.261   4.296   3.329  0.0432  0.3263  0.1550
  716W        W 2380   5.453   2.712   2.695  0.4384 -0.3034  0.0380
  717W        W 2381   5.949   6.042   2.149 -0.2704 -0.3792  0.1485
  718W        W 2382   6.984   0.894   5.419  0.2573 -0.1747  0.2060
  719W        W 2383   5.348   1.255   1.737  0.0191 -0.1124 -0.0400
  720W        W 2384   5.683   6.225   3.562  0.0340  0.2446  0.1135
  721W        W 2385   5.941   6.599   0.216  0.1089  0.0488 -0.1283
  722W        W 2386   7.308   3.769   1.181 -0.2817  0.1982  0.1437
  723W        W 2387   6.987   4.170   0.229 -0.1131  0.1740 -0.0417
  724W        W 2388   5.279   3.752   4.414 -0.0657 -0.2737  0.1139
  725W        W 2389   7.066   1.960   0.308 -0.1399  0.1640  0.1604
  726W        W 2390   5.363   3.290   5.756  0.0678 -0.2877 -0.0564
  727W        W 2391   6.944   1.168   2.969  0.1869  0.0425 -0.1582
  728W        W 2392   5.172   2.196   2.793 -0.1263 -0.1144  0.0107
  729W        W 2393   4.999   5.276   4.547  0.1195  0.1095  0.0547
  730W        W 2394   0.099   3.403   2.863  0.0266 -0.0374  0.0130
  731W        W 2395   5.891   5.651   0.665 -0.0137  0.0833 -0.0208
  732W        W 2396   4.423   2.707   0.251  0.2002 -0.2052 -0.1713
  733W        W 2397   5.583   2.930   3.553  0.0345  0.3593  0.1279
  734W        W 2398   4.722   6.024   3.941  0.1481 -0.0705 -0.3170
  735W        W 2399   6.318   6.916   2.395 -0.1025 -0.0328 -0.0346
  736W        W 2400   5.546   2.245   3.764 -0.2540  0.2750 -0.2762
  737W        W 2401   0.142   6.384   0.344 -0.0666 -0.0342  0.1261
  738W        W 2402   6.916   5.109   5.738 -0.1839  0.0568  0.1522
  739W        W 2403   5.524   2.644   1.939 -0.0028 -0.0402  0.1713
  740W        W 2404   5.817   1.452   3.958  0.3437 -0.3411  0.2618
  741W        W 2405   5.323   0.774   1.846 -0.0571 -0.0094  0.0178
  742W        W 2406   6.454   7.324   2.022 -0.3174  0.0018  0.2115
  743W        W 2407   0.335   4.511   1.913  0.0541 -0.1205  0.2465
  744W        W 2408   5.528   6.511   2.725 -0.2809  0.2256  0.1475
  745W        W 2409   6.055   0.012   1.751  0.0689 -0.4187  0.0993
  746W        W 2410   6.367   2.493   5.003 -0.0038 -0.2667  0.1005
  747W        W 2411   0.655   3.356   0.399 -0.0732 -0.1117  0.3835
  748W        W 2412   5.193   5.683   3.990 -0.1211  0.1062  0.0813
  749W        W 2413   5.470   5.442   0.673  0.2248  0.1166 -0.1654
  750W        W 2414   6.636   1.556   4.388  0.1734  0.1958  0.3087
  751W        W 2415   6.456   0.063   2.741 -0.0126  0.1045 -0.2201
  752W        W 2416   0.363   0.926   1.677 -0.2493 -0.0512 -0.1292
  753W        W 2417   5.940   6.779   4.098  0.0887  0.0039 -0.1702
  754W        W 2418   5.075   2.145   4.938  0.4338  0.0603  0.0426
  755W        W 2419   4.943   4.173   3.220 -0.2217 -0.1424 -0.0280
  756W        W 2420   6.816   4.160   1.990  0.1181  0.0285  0.0264
  757W        W 2421   6.444   3.177   2.163  0.1300 -0.3336  0.2451
  758W        W 2422   0.052   6.547   1.950 -0.0690 -0.1711  0.2827
  759W        W 2423   0.191   0.953   0.066  0.2983 -0.2234 -0.2388
  760W        W 2424   6.764   4.405   3.572  0.0656 -0.2342 -0.0792
  761W        W 2425   0.232   4.705   4.061  0.0039 -0.3458 -0.2381
  762W        W 2426   5.419   5.440   1.920 -0.3190  0.1542  0.0054
  763W        W 2427   6.240   5.804   1.140  0.0445  0.2212 -0.1993
  764W        W 2428   5.373   3.464   2.135  0.2609 -0.0094  0.0170
  765W        W 2429   4.619   3.732   3.937 -0.1778  0.2502 -0.0941
  766W        W 2430   5.922   1.906   3.777  0.0549 -0.1412  0.0114
  767W        W 2431   4.874   3.295   4.148  0.3079  0.1129  0.1254
  768W        W 2432   6.563   1.850   0.249  0.0119  0.0292 -0.0812
  769W        W 2433   7.267   6.006   5.406 -0.0753  0.1326  0.0946
  770W        W 2434   5.594   5.500   5.594  0.3484 -0.1528  0.0181
  771W        W 2435   6.015   1.030   5.351  0.1512 -0.1129 -0.1327
  772W        W 2436   7.187   2.756   4.660 -0.2944 -0.1059 -0.0250
  773W        W 2437   5.858   1.859   4.823  0.0150  0.1807 -0.0463
  774W        W 2438   0.159   3.042   5.355 -0.0363  0.1779  0.2694
  775W        W 2439   5.541   2.849   0.839 -0.1170  0.1508  0.3647
  776W        W 2440   0.247   3.634   4.054  0.1532  0.3602 -0.0597
  777W        W 2441   4.862   2.713   2.668  0.1719  0.3331  0.1372
  778W        W 2442   0.126   0.729   5.416 -0.0951  0.3697  0.2979
  779W        W 2443   5.549   1.021   5.834 -0.2149 -0.4178 -0.3287
  780W        W 2444   5.474   6.439   4.946 -0.1239 -0.0331 -0.1856
  781W        W 2445   6.243   0.028   0.461 -0.0253 -0.0110 -0.1636
  782W        W 2446   4.841   3.195   3.495 -0.3056 -0.1074  0.0886
  783W        W 2447   6.721   0.889   4.266  0.2737 -0.1657 -0.0230
  784W        W 2448   4.945   4.710   0.274  0.0000  0.2753  0.0832
  785W        W 2449   6.124   0.086   2.368  0.2007  0.0160  0.0100
  786W        W 2450   6.384   5.797   2.013 -0.0871  0.0974  0.0867
  787W        W 2451   4.465   4.775   5.241 -0.3330  0.2897  0.1594
  788W        W 2452   7.197   4.558   1.081 -0.0094  0.1398 -0.1562
  789W        W 2453   6.145   3.068   0.453 -0.0174  0.3943  0.0285
  790W        W 2454   7.003   5.072   2.956 -0.0917 -0.1935 -0.1616
  791W        W 2455   6.495   3.127   4.453 -0.2794 -0.2190 -0.0460
  792W        W 2456   6.066   1.016   0.379 -0.0664 -0.0122  0.0340
  793W        W 2457   6.416   5.536   4.467 -0.0581 -0.0737  0.1143
  794W        W 2458   5.212   3.029   3.082 -0.1360 -0.1138 -0.0039
  795W        W 2459   4.383   2.816   2.931 -0.0060 -0.1620 -0.1351
  796W        W 2460   4.783   6.231   5.711  0.0761  0.0581 -0.0379
  797W        W 2461   5.875   3.737   2.755  0.0602  0.0929  0.1217
  798W        W 2462   6.154   0.879   1.806  0.1555  0.0353 -0.0357
  799W        W 2463   5.131   5.421   0.032 -0.0782 -0.1467  0.2479
  800W        W 2464   6.445   6.243   4.226 -0.0475  0.1501  0.0361
  801W        W 2465   0.464   0.892   5.042 -0.3621  0.1020  0.1485
  802W        W 2466   6.890   5.807   1.956 -0.3871 -0.0142 -0.1255
  803W        W 2467   4.273   5.899   4.397 -0.2798 -0.1304  0.1073
  804W        W 2468   6.407   2.470   4.088  0.3066 -0.2633  0.0032
  805W        W 2469   6.461   5.778   4.053  0.0829 -0.1461 -0.0020
  806W        W 2470   6.213   1.346   1.978 -0.1359  0.0402 -0.1346
  807W        W 2471   5.353   4.495   5.039 -0.1031  0.0352 -0.0957
  808W        W 2472   5.532   4.506   1.906 -0.1372 -0.1538  0.0619
  809W        W 2473   6.359   2.125   3.705 -0.3032 -0.1087 -0.0657
  810W        W 2474   5.724   5.654   4.534 -0.0399  0.0978 -0.0586
  811W        W 2475   5.945   1.051   4.828  0.0510 -0.0603  0.2443
  812W        W 2476   5.514   4.335   1.159  0.1101 -0.3288  0.5228
  813W        W 2477   5.512   5.040   3.229  0.1651 -0.1004 -0.0897
  814W        W 2478   6.660   3.304   0.467  0.1910 -0.1522  0.0389
  815W        W 2479   5.424   2.701   1.457 -0.2449 -0.0052  0.2508
  816W        W 2480   4.936   0.028   3.464  0.0380  0.2636 -0.0910
  817W        W 2481   5.368   6.604   1.397  0.1248 -0.1000 -0.0620
  818W        W 2482   7.337   6.399   5.743 -0.1704  0.0960  0.1397
  819W        W 2483   5.556   2.365   0.584 -0.1025  0.3885 -0.0435
  820W        W 2484   6.115   6.334   3.232 -0.0189 -0.0312 -0.0027
  821W        W 2485   5.317   6.585   3.200 -0.2391  0.1944  0.0925
  822W        W 2486   5.560   4.746   5.470 -0.1047  0.1872 -0.2020
  823W        W 2487   6.706   5.070   4.453 -0.1783 -0.0590 -0.2727
  824W        W 2488   5.370   1.776   5.010  0.0845  0.2493 -0.3392
  825W        W 2489   6.711   2.801   4.811 -0.0362  0.1438  0.3373
  826W        W 2490   7.022   6.725   1.644  0.4378 -0.0453  0.0841
  827W        W 2491   0.384   0.945   2.597  0.0662 -0.4755  0.2894
  828W        W 2492   5.468   5.923   0.779  0.2026 -0.0532 -0.1195
  829W        W 2493   5.377   0.591   1.351 -0.2372  0.1098  0.0798
  830W        W 2494   6.981   2.644   3.183 -0.0893  0.2549 -0.1662
  831W        W 2495   0.390   4.434   0.654  0.0014 -0.2453 -0.2016
  832W        W 2496   5.532   2.251   4.420 -0.0517 -0.2040  0.3578
  833W        W 2497   5.412   3.964   3.435  0.1277  0.2709  0.1056
  834W        W 2498   6.126   2.927   4.830 -0.2102 -0.2143 -0.2225
  835W        W 2499   6.260   7.151   5.831 -0.4886 -0.1096  0.2396
  836W        W 2500   7.133   0.308   5.323  0.2182  0.1226  0.2065
  837W        W 2501   6.227   0.698   0.793  0.2222  0.0357 -0.1313
  838W        W 2502   6.318   5.788   3.550  0.0255 -0.2477  0.3206
  839W        W 2503   6.727   1.441   5.480  0.1650  0.2700 -0.2065
  840W        W 2504   7.280   4.289   1.490 -0.0663 -0.1619  0.1870
  841W        W 2505   6.620   5.850   2.469 -0.1152  0.4141 -0.1242
  842W        W 2506   6.299   3.602   5.652 -0.1284  0.0191  0.2285
  843W        W 2507   5.879   7.322   4.062  0.0060  0.3351  0.0811
  844W        W 2508   5.281   1.255   3.388 -0.0927 -0.0033 -0.1566
  845W        W 2509   0.201   4.455   2.927 -0.0903  0.0810 -0.1073
  846W        W 2510   4.563   6.375   5.250  0.4772 -0.0309 -0.1077
  847W        W 2511   6.515   1.074   2.707  0.0683  0.0040  0.1573
  848W        W 2512   6.326   1.194   1.512  0.0061 -0.2248  0.2070
  849W        W 2513   6.100   3.497   4.020  0.1584 -0.0438  0.0630
  850W        W 2514   5.225   0.178   4.847 -0.2174  0.0605 -0.0038
  851W        W 2515   6.448   2.600   2.333 -0.0117  0.3133  0.0187
  852W        W 2516   0.044   0.208   1.281  0.0692 -0.0993  0.1138
  853W        W 2517   5.107   2.103   5.394 -0.3317 -0.1793  0.2793
  854W        W 2518   7.304   5.134   3.653 -0.1377  0.1653  0.1694
  855W        W 2519   5.534   0.051   2.975  0.2343 -0.0300 -0.1251
  856W        W 2520   5.340   3.275   4.350  0.0973 -0.0733  0.2230
  857W        W 2521   4.825   0.541   3.702 -0.0514  0.0434 -0.1500
  858W        W 2522   0.476   5.314   2.642 -0.1069 -0.0203  0.0676
  859W        W 2523   5.156   0.225   2.618 -0.0069 -0.2511 -0.0080
  860W        W 2524   6.168   2.735   2.723 -0.1319 -0.4411  0.0623
  861W        W 2525   5.346   4.029   1.781  0.0863 -0.3121 -0.2947
  862W        W 2526   6.368   0.607   0.277  0.0928  0.0979  0.1461
  863W        W 2527   4.354   5.163   1.145  0.2386  0.1995  0.1602
  864W        W 2528   6.525   3.208   4.945  0.3141  0.2888 -0.2152
  865W        W 2529   0.103   5.380   1.333  0.1739 -0.0727 -0.0622
  866W        W 2530   5.954   7.004   4.885  0.0593 -0.0523 -0.2133
  867W        W 2531   5.157   5.724   1.586 -0.1413  0.1579 -0.1940
  868W        W 2532   7.292   5.261   4.261  0.0350 -0.1978  0.1898
  869W        W 2533   6.173   3.678   1.620  0.0899  0.1367 -0.2328
  870W        W 2534   4.951   4.531   5.330 -0.3154  0.1797 -0.0934
  871W        W 2535   5.797   5.421   3.180  0.0128  0.1988  0.1818
  872W        W 2536   0.409   2.383   5.431  0.2055  0.2420  0.1084
  873W        W 2537   0.449   5.023   4.536  0.1037 -0.0649  0.1829
  874W        W 2538   7.032   4.037   4.755  0.1720  0.2841  0.1312
  875W        W 2539   6.932   0.555   3.492 -0.2334  0.0408  0.0783
  876W        W 2540   6.307   6.133   5.302  0.1987 -0.1770 -0.0249
  877W        W 2541   6.892   3.573   3.680 -0.2537 -0.0617 -0.1488
  878W        W 2542   5.420   5.944   5.167 -0.2052 -0.1809 -0.0873
  879W        W 2543   5.786   6.013   4.887  0.2153  0.0728  0.0382
  880W        W 2544   6.800   4.603   4.023 -0.0895  0.0747 -0.1411
  881W        W 2545   4.752   1.042   2.514 -0.2426  0.2377  0.0077
  882W        W 2546   5.989   2.564   0.655 -0.0691 -0.4642  0.1383
  883W        W 2547   5.651   7.315   5.636  0.0893  0.0685  0.0294
  884W        W 2548   5.136   5.642   1.032  0.0987 -0.1571  0.0470
  885W        W 2549   6.034   0.295   3.029  0.2754  0.1698 -0.0677
  886W        W 2550   6.653   0.966   3.324 -0.0603  0.0837  0.1703
  887W        W 2551   5.684   4.423   0.652 -0.5485 -0.0640  0.0444
  888W        W 2552   6.910   3.424   1.422 -0.1827  0.0473 -0.1174
  889W        W 2553   5.984   2.781   1.315  0.3115  0.2677  0.0632
  890W        W 2554   7.255   2.496   0.281  0.2934 -0.3331 -0.4050
  891W        W 2555   5.358   3.168   1.334  0.0286 -0.0941 -0.1836
  892W        W 2556   6.897   7.188   1.836 -0.0590  0.0500 -0.1121
  893W        W 2557   0.214   4.291   3.445 -0.1939 -0.2903 -0.0947
  894W        W 2558   5.375   3.756   5.671  0.0844  0.1146 -0.0971
  895W        W 2559   6.794   5.793   3.556 -0.0344  0.0621  0.2516
  896W        W 2560   5.037   6.846   0.608  0.1893 -0.0566  0.2837
  897W        W 2561   5.653   5.467   4.988 -0.0305  0.2542 -0.2637
  898W        W 2562   6.988   2.302   4.453 -0.0628 -0.1057  0.0781
  899W        W 2563   5.553   4.639   0.189 -0.1553  0.2571  0.4585
  900W        W 2564   7.285   2.899   1.130 -0.3014  0.1577  0.1925
  901W        W 2565   6.441   3.327   3.572  0.0901 -0.0611 -0.0378
  902W        W 2566   0.019   2.543   3.997  0.0785 -0.0116  0.0746
  903W        W 2567   5.822   6.678   1.188  0.0643  0.2821 -0.2386
  904W        W 2568   6.278   0.583   1.393  0.1313 -0.0688 -0.1841
  905W        W 2569   4.078   0.286   1.283  0.0754 -0.4087  0.0526
  906W        W 2570   0.565   5.226   2.033 -0.1054 -0.1838 -0.1130
  907W        W 2571   5.252   5.307   1.344 -0.0724  0.1587 -0.1039
  908W        W 2572   5.151   0.794   0.796  0.0162 -0.1518  0.0335
  909W        W 2573   6.506   2.425   4.550  0.0336 -0.2725  0.1702
  910W        W 2574   0.802   4.844   4.930  0.2026  0.0475  0.1694
  911W        W 2575   6.128   4.326   0.917  0.0614 -0.0484  0.1990
  912W        W 2576   6.300   5.844   5.695  0.0335 -0.0738  0.0785
  913W        W 2577   0.333   5.375   0.464 -0.0121  0.0763  0.0024
  914W        W 2578   0.215   2.761   1.522  0.0103  0.1871 -0.0607
  915W        W 2579   6.317   4.249   1.789 -0.3089  0.0545 -0.1903
  916W        W 2580   6.125   1.213   2.468 -0.2576 -0.2933 -0.2364
  917W        W 2581   6.460   1.759   1.672 -0.0962 -0.2354 -0.1853
  918W        W 2582   6.852   0.512   1.383  0.1791  0.1921  0.2837
  919W        W 2583   6.822   0.308   2.184 -0.1397  0.1771  0.2000
  920W        W 2584   5.427   5.170   5.328 -0.0704  0.0517 -0.1175
  921W        W 2585   5.621   5.000   2.054 -0.0420  0.1296 -0.2983
  922W        W 2586   5.497   0.913   5.350 -0.1552  0.1640  0.0563
  923W        W 2587   5.980   2.182   4.168  0.0835  0.0157 -0.1411
  924W        W 2588   5.886   2.761   5.833 -0.3797 -0.0367 -0.4000
  925W        W 2589   6.593   6.448   1.544 -0.0057 -0.2363 -0.2373
  926W        W 2590   7.114   7.258   5.628 -0.0227  0.0666  0.1511
  927W        W 2591   6.505   6.814   1.929  0.1337  0.0833 -0.2319
  928W        W 2592   5.161   0.393   3.112  0.0292  0.0789  0.0276
  929W        W 2593   5.109   1.354   1.343  0.0010 -0.0648  0.0332
  930W        W 2594   4.603   0.231   1.393 -0.3794 -0.2390 -0.0099
  931W        W 2595   0.471   6.814   4.108  0.4703 -0.3439  0.0536
  932W        W 2596   6.298   6.326   5.773  0.1704 -0.0494 -0.0660
  933W        W 2597   5.186   2.167   3.425 -0.0528 -0.0248  0.1079
  934W        W 2598   6.519   5.509   5.378  0.3251  0.0017  0.1651
  935W        W 2599   5.106   0.894   2.994  0.0802  0.1110 -0.0936
  936W        W 2600   5.527   5.193   3.745 -0.0641 -0.1571  0.3209
  937W        W 2601   6.690   1.494   1.327 -0.2326  0.0109 -0.4165
  938W        W 2602   5.934   5.785   5.339  0.0445  0.2498 -0.0320
  939W        W 2603   6.225   6.475   2.157  0.2424 -0.2876 -0.0399
  940W        W 2604   0.169   3.836   4.817  0.2069 -0.1452  0.2750
  941W        W 2605   4.601   5.601   1.683 -0.0256  0.0914  0.2343
  942W        W 2606   0.545   4.749   5.830  0.1750  0.2911 -0.0075
  943W        W 2607   5.931   3.453   0.692  0.1606  0.0505 -0.0566
  944W        W 2608   7.161   1.972   4.141  0.0043 -0.1438  0.2020
  945W        W 2609   7.327   6.795   1.216 -0.3157 -0.0578  0.0034
  946W        W 2610   5.734   3.593   4.423 -0.0256  0.0398 -0.1410
  947W        W 2611   7.056   0.194   4.368  0.0515 -0.3156  0.1766
  948W        W 2612   6.415   4.763   3.255  0.0653 -0.2515  0.1009
  949W        W 2613   5.806   4.002   1.795 -0.1053 -0.0750  0.2650
  950W        W 2614   6.236   6.162   1.757  0.1568  0.1849  0.0273
  951W        W 2615   5.527   6.111   4.489  0.1545 -0.2819 -0.0038
  952W        W 2616   6.245   0.698   4.968 -0.2930 -0.0988 -0.3592
  953W        W 2617   5.546   5.220   0.245 -0.3661  0.1392  0.2348
  954W        W 2618   5.109   6.573   4.512 -0.0366 -0.1239  0.0941
  955W        W 2619   0.324   4.124   3.937  0.0803  0.0521  0.1789
  956W        W 2620   5.965   1.550   1.137 -0.3101  0.1614 -0.0241
  957W        W 2621   6.859   5.606   4.280  0.1255 -0.1273  0.0947
  958W        W 2622   0.416   2.792   4.982 -0.0471  0.3436 -0.3079
  959W        W 2623   5.384   2.596   3.221 -0.2721  0.1261 -0.1427
  960W        W 2624   6.192   4.635   2.771 -0.2878 -0.2361  0.0418
  961W        W 2625   6.849   3.118   1.024  0.1855  0.0816 -0.0540
  962W        W 2626   6.688   2.751   0.104  0.0094 -0.4306  0.0807
  963W        W 2627   6.281   3.749   3.109 -0.0981 -0.1596 -0.0086
  964W        W 2628   6.065   2.652   1.763 -0.0698 -0.1505  0.0860
  965W        W 2629   5.283   6.978   2.703 -0.0950 -0.3238  0.0634
  966W        W 2630   6.640   2.756   3.657 -0.2120  0.0841 -0.2140
  967W        W 2631   6.524   6.209   3.734 -0.1483 -0.5204 -0.0094
  968W        W 2632   6.083   4.985   0.141 -0.0528 -0.0669 -0.1110
  969W        W 2633   4.606   2.065   5.634  0.1134 -0.0638  0.1878
  970W        W 2634   6.552   5.350   0.953 -0.0833  0.0632  0.1179
  971W        W 2635   7.209   4.338   5.595  0.2224 -0.1304  0.1916
  972W        W 2636   7.027   1.067   1.293 -0.0038 -0.0496 -0.1438
  973W        W 2637   6.687   1.334   0.383 -0.2936 -0.1511 -0.2078
  974W        W 2638   5.290   5.952   5.642  0.2534  0.0575 -0.0369
  975W        W 2639   0.025   4.744   4.839  0.2216 -0.1919 -0.3671
  976W        W 2640   5.084   4.669   3.192  0.1558  0.1412 -0.1158
  977W        W 2641   6.171   5.087   4.579  0.2697  0.2204  0.0103
  978W        W 2642   4.967   5.004   5.246  0.0455  0.1617 -0.1099
  979W        W 2643   4.721   4.535   4.190 -0.0763 -0.4176  0.2007
  980W        W 2644   6.963   1.319   3.971 -0.3684  0.0324 -0.0902
  981W        W 2645   6.337   6.870   0.375  0.0122 -0.1138  0.1048
  982W        W 2646   5.619   1.348   5.191 -0.1892  0.0557  0.2964
  983W        W 2647   4.685   5.292   2.694 -0.0627  0.1099  0.0354
  984W        W 2648   0.003   3.855   5.813 -0.2529 -0.1502  0.1243
  985W        W 2649   6.732   5.938   5.164  0.2992 -0.0982 -0.3479
  986W        W 2650   5.891   3.606   3.486  0.0671 -0.3620  0.3585
  987W        W 2651   6.719   4.453   5.643 -0.3778  0.3290 -0.6333
  988W        W 2652   6.919   4.544   4.687  0.1280  0.4194 -0.0930
  989W        W 2653   5.837   4.690   4.570 -0.0687  0.1906  0.1295
  990W        W 2654   6.099   0.777   3.372  0.2573  0.3702 -0.1851
  991W        W 2655   6.928   3.647   2.826 -0.0998 -0.0833  0.0214
  992W        W 2656   6.572   4.804   0.091  0.1202 -0.3770 -0.0714
  993W        W 2657   6.482   6.700   4.002 -0.1589 -0.0972 -0.2255
  994W        W 2658   6.668   4.409   3.052 -0.0075  0.0696 -0.0507
  995W        W 2659   6.258   2.214   1.967  0.2296 -0.0751 -0.1301
  996W        W 2660   4.169   4.198   3.217 -0.2728  0.4348 -0.0857
  997W        W 2661   5.158   0.378   2.123 -0.1171  0.1658 -0.7338
  998W        W 2662   6.060   5.187   2.409 -0.2733  0.2379  0.2093
  999W        W 2663   6.593   5.941   1.466  0.3993  0.1273 -0.1382
 1000W        W 2664   6.319   6.824   2.929  0.3351  0.1525  0.0798
 1001W        W 2665   5.800   1.230   1.620 -0.0030 -0.1253 -0.0662
 1002W        W 2666   4.937   2.512   5.711 -0.0536  0.1081  0.0435
 1003W        W 2667   0.553   3.927   4.429 -0.0041 -0.1967 -0.2158
 1004W        W 2668   5.745   5.641   3.647  0.0536  0.0319  0.0429
 1005W        W 2669   5.800   2.321   2.779  0.1846 -0.1354 -0.0088
 1006W        W 2670   6.331   3.564   2.531  0.3140 -0.1740 -0.1055
 1007W        W 2671   0.319   2.117   3.885 -0.0025  0.2303  0.0722
 1008W        W 2672   0.114   4.974   2.763  0.0889 -0.0703 -0.1627
 1009W        W 2673   7.091   1.524   5.031  0.0725 -0.2155  0.0332
 1010W        W 2674   6.033   1.735   3.238 -0.0398 -0.1150  0.1828
 1011W        W 2675   5.245   2.058   0.807  0.2380 -0.0129 -0.0703
 1012W        W 2676   6.675   3.032   5.464 -0.1220  0.2270 -0.1654
 1013W        W 2677   5.136   6.026   3.588 -0.1147  0.0169  0.0975
 1014W        W 2678   6.119   5.635   4.886  0.1548  0.0292  0.0148
 1015W        W 2679   7.116   4.653   0.142  0.2541 -0.0687 -0.0810
 1016W        W 2680   5.803   0.540   5.174 -0.1531  0.1370 -0.2510
 1017W        W 2681   5.099   4.764   1.087  0.1750  0.3579  0.0581
 1018W        W 2682   5.366   4.130   3.930 -0.5265  0.1118  0.1802
 1019W        W 2683   6.053   0.738   2.287 -0.4429 -0.3477 -0.1572
 1020W        W 2684   5.685   1.950   5.350 -0.0262 -0.2342 -0.1340
 1021W        W 2685   6.179   3.465   4.711 -0.2550  0.0720  0.1864
 1022W        W 2686   6.785   4.293   1.473  0.0683 -0.5016 -0.3611
 1023W        W 2687   6.539   2.655   1.785  0.2834 -0.0301 -0.1252
 1024W        W 2688   0.561   7.221   4.432 -0.1234  0.0650 -0.0096
 1025W        W 2689   7.060   1.217   0.025 -0.2445  0.0229 -0.1198
 1026W        W 2690   5.856   3.869   1.251 -0.3291  0.2994 -0.0178
 1027W        W 2691   5.820   4.359   5.022 -0.1005 -0.0823 -0.2803
 1028W        W 2692   6.855   3.153   3.907 -0.1276 -0.0834 -0.3500
 1029W        W 2693   5.946   2.626   3.800 -0.1953  0.3794 -0.2378
 1030W        W 2694   6.128   1.683   2.701  0.0545 -0.0019  0.3025
 1031W        W 2695   4.734   6.441   2.027  0.1989  0.0164 -0.2171
 1032W        W 2696   5.159   3.159   2.588  0.1715 -0.1785  0.2183
 1033W        W 2697   0.053   7.126   1.632  0.2089  0.1788  0.1196
 1034W        W 2698   0.792   5.638   2.264  0.2631 -0.2050 -0.1548
 1035W        W 2699   7.057   4.096   0.824 -0.1241 -0.1427 -0.4186
 1036W        W 2700   6.148   6.037   0.308  0.0281  0.0115 -0.3136
 1037W        W 2701   6.192   4.241   2.270 -0.0198 -0.2628 -0.0817
 1038W        W 2702   6.562   1.477   3.012 -0.1132 -0.1361 -0.0705
 1039W        W 2703   5.150   4.895   1.853  0.0777 -0.0864  0.2293
 1040W        W 2704   6.668   6.031   0.134  0.1553 -0.3719  0.0208
 1041W        W 2705   6.584   0.896   1.133  0.1684 -0.2237  0.1208
 1042W        W 2706   6.552   3.321   3.055 -0.1136 -0.2207 -0.0876
 1043W        W 2707   0.249   6.190   0.955  0.1190  0.1724  0.0386
 1044W        W 2708   5.957   3.328   1.327  0.1181 -0.0435  0.3851
 1045W        W 2709   5.663   3.548   1.704 -0.0560  0.0477 -0.0579
 1046W        W 2710   0.102   7.271   4.187  0.3238  0.1627 -0.1223
 1047W        W 2711   6.977   7.210   1.319  0.0414  0.1776 -0.0753
 1048W        W 2712   6.779   4.058   4.015 -0.0370 -0.1284 -0.0180
 1049W        W 2713   6.233   3.123   1.690 -0.1318  0.0619  0.0432
 1050W        W 2714   5.187   3.087   1.897 -0.1898  0.1795  0.3239
 1051W        W 2715   6.112   6.252   1.303  0.1484  0.1657 -0.5364
 1052W        W 2716   0.063   4.330   4.590  0.3428 -0.1951  0.1797
 1053W        W 2717   6.915   6.619   3.746 -0.2975  0.0807 -0.2939
 1054W        W 2718   4.763   3.235   0.112  0.0811 -0.0068 -0.2305
 1055W        W 2719   5.008   1.942   1.990  0.4013 -0.1797  0.3269
 1056W        W 2720   7.095   4.941   1.607 -0.2121  0.1798  0.2811
 1057W        W 2721   4.409   7.219   1.925  0.3148  0.3910 -0.1504
 1058W        W 2722   4.791   4.656   4.871  0.1269  0.0015  0.4370
 1059W        W 2723   7.009   6.193   1.688 -0.2925 -0.2544  0.3684
 1060W        W 2724   4.314   3.249   0.439 -0.1503  0.0242  0.3609
 1061W        W 2725   6.651   0.179   0.055  0.3203  0.0326  0.0456
 1062W        W 2726   7.297   0.568   4.113  0.2210 -0.0570 -0.0711
 1063W        W 2727   0.265   5.842   5.730  0.0772 -0.0806  0.0576
 1064W        W 2728   6.025   2.953   2.155  0.1207 -0.3939 -0.0689
 1065W        W 2729   6.364   4.647   1.336 -0.2844  0.1688 -0.0321
 1066W        W 2730   4.007   4.222   4.608 -0.3008  0.1261 -0.1783
 1067W        W 2731   6.686   0.514   5.473  0.2402  0.0874 -0.0104
 1068W        W 2732   6.678   4.406   0.966  0.2523  0.1023 -0.3282
 1069W        W 2733   6.338   3.120   0.886  0.0546  0.0865  0.1824
 1070W        W 2734   6.246   1.644   5.616 -0.1602 -0.0588 -0.3441
 1071W        W 2735   5.644   1.434   4.712 -0.3156 -0.0930 -0.0121
 1072W        W 2736   6.354   1.190   0.770 -0.2213  0.4598 -0.0518
 1073W        W 2737   0.036   2.016   5.172 -0.1064  0.2351  0.0166
 1074W        W 2738   7.260   1.132   1.697  0.0990  0.0640  0.0612
 1075W        W 2739   5.947   6.846   5.643 -0.2751  0.1515  0.2080
 1076W        W 2740   6.913   3.136   3.363  0.4331  0.2345  0.1181
 1077W        W 2741   5.289   7.193   0.306 -0.1620 -0.1555  0.0938
 1078W        W 2742   5.657   4.222   5.542  0.3097 -0.1546 -0.1417
 1079W        W 2743   6.218   0.393   4.058  0.3466 -0.2763 -0.0601
 1080W        W 2744   6.526   6.981   1.440  0.2025  0.4271  0.0771
 1081W        W 2745   0.043   5.916   2.637  0.0437  0.3464 -0.1719
 1082W        W 2746   4.537   3.960   3.497  0.2953 -0.3530  0.1226
 1083W        W 2747   6.688   4.539   2.449  0.0863 -0.1364  0.0135
 1084W        W 2748   6.142   6.680   1.551 -0.3737 -0.3993 -0.0236
 1085W        W 2749   4.841   3.432   2.140 -0.0844  0.0782 -0.0193
 1086W        W 2750   6.828   0.329   0.440 -0.2552  0.1197  0.1604
 1087W        W 2751   7.324   0.454   2.390 -0.0009 -0.1230  0.1802
 1088W        W 2752   5.618   2.756   4.845  0.2132 -0.1324 -0.0613
 1089W        W 2753   6.798   0.479   3.961  0.0463  0.0348  0.0355
 1090W        W 2754   4.757   3.499   2.633 -0.0742  0.0556  0.0478
 1091W        W 2755   5.985   6.510   0.721  0.0847  0.0978 -0.1827
 1092W        W 2756   6.351   6.123   4.796  0.3449 -0.0619  0.1254
 1093W        W 2757   5.488   7.049   0.725 -0.1056  0.2361 -0.1791
 1094W        W 2758   5.646   5.630   1.156  0.0505  0.0493 -0.0623
 1095W        W 2759   7.105   4.053   3.676  0.0159  0.1156 -0.1709
 1096W        W 2760   5.124   2.712   0.509 -0.1307 -0.1010  0.2631
 1097W        W 2761   6.658   4.017   2.445  0.2746  0.0615 -0.1007
 1098W        W 2762   5.569   5.070   1.079 -0.0740  0.0553  0.0862
 1099W        W 2763   7.171   4.326   4.131  0.1400 -0.1095  0.0372
 1100W        W 2764   6.258   5.304   0.504 -0.2870  0.0154 -0.0636
 1101W        W 2765   0.512   3.624   5.560 -0.0623 -0.0794 -0.1211
 1102W        W 2766   6.825   2.294   1.826 -0.2449 -0.4138 -0.0001
 1103W        W 2767   6.503   0.131   1.516 -0.0537  0.1678 -0.1034
 1104W        W 2768   5.694   6.932   2.422  0.0605  0.1687  0.0327
 1105W        W 2769   5.384   1.536   5.583  0.0815 -0.1062 -0.0047
 1106W        W 2770   4.976   3.601   4.867 -0.0862 -0.3546 -0.3871
 1107W        W 2771   5.770   0.615   0.363 -0.1188  0.2451  0.0197
 1108W        W 2772   6.034   4.489   5.833 -0.1488 -0.0791  0.0964
 1109W        W 2773   5.756   2.347   1.096  0.1743  0.1352  0.2358
 1110W        W 2774   7.162   0.927   3.748  0.0526  0.0543  0.1922
 1111W        W 2775   5.804   4.924   5.046 -0.0627 -0.0338  0.1418
 1112W        W 2776   5.932   2.505   5.220  0.0947  0.1420 -0.0867
 1113W        W 2777   4.427   0.610   1.207 -0.0699 -0.4679  0.1926
 1114W        W 2778   6.874   7.052   0.209 -0.2445  0.0888  0.1726
 1115W        W 2779   0.436   1.199   4.322 -0.1781 -0.0136 -0.0767
 1116W        W 2780   6.137   2.081   0.473  0.1226 -0.0338  0.0978
 1117W        W 2781   6.676   4.519   0.485  0.0736 -0.1105 -0.1981
 1118W        W 2782   6.729   4.383   5.142 -0.0002  0.0306  0.3363
 1119W        W 2783   5.278   5.486   3.454  0.3148  0.1194 -0.0895
 1120W        W 2784   5.600   0.979   0.699 -0.0646 -0.1237  0.0259
 1121W        W 2785   7.114   3.380   5.478  0.2056 -0.3094  0.1562
 1122W        W 2786   6.944   7.028   3.448 -0.0466 -0.1734 -0.0734
 1123W        W 2787   4.968   5.502   5.272 -0.0834 -0.3546  0.0512
 1124W        W 2788   5.290   1.737   1.616 -0.1939  0.0457  0.2646
 1125W        W 2789   0.216   1.238   3.825 -0.0037 -0.0089 -0.0621
 1126W        W 2790   6.963   1.177   4.628  0.0014 -0.0707 -0.0415
 1127W        W 2791   6.520   4.032   4.903  0.3697  0.2544  0.2150
 1128W        W 2792   5.120   4.983   2.772 -0.0210 -0.1849 -0.1013
   7.34027   7.34027   5.83907
