DSPC BILAYER SELF-ASSEMBLY
 2792
    1DSPC   NC3    1   4.352   7.207   4.742 -0.0531  0.1906  0.1602
    1DSPC   PO4    2   4.499   7.631   4.666 -0.0732 -0.1082 -0.2996
    1DSPC   GL1    3   4.241   7.993   4.605  0.1098 -0.0552 -0.0879
    1DSPC   GL2    4   4.365   8.243   4.788 -0.1490 -0.1573  0.0217
    1DSPC   C1A    5   3.872   8.212   4.574 -0.3639  0.1522 -0.2602
    1DSPC   C2A    6   3.465   8.393   4.480  0.1757 -0.1262 -0.4025
    1DSPC   C3A    7   3.227   8.816   4.541  0.2425  0.0783  0.0951
    1DSPC   C4A    8   3.143   9.254   4.353 -0.0959 -0.1347 -0.1870
    1DSPC   C5A    9   2.848   9.518   4.338  0.2166 -0.2363  0.2603
    1DSPC   C1B   10   4.073   8.614   4.718  0.0400 -0.1408 -0.0077
    1DSPC   C2B   11   3.632   8.667   4.876 -0.0963  0.3441 -0.3167
    1DSPC   C3B   12   3.227   8.903   5.086 -0.1547  0.2395 -0.1289
    1DSPC   C4B   13   2.841   9.004   5.341 -0.0138 -0.1354 -0.0188
    1DSPC   C5B   14   2.366   8.874   5.418  0.2622 -0.1906 -0.1095
    2DSPC   NC3   15   4.925   5.670   1.676  0.0881 -0.3554 -0.0193
    2DSPC   PO4   16   5.199   5.632   1.303  0.0883 -0.1247  0.2145
    2DSPC   GL1   17   4.850   5.354   1.221  0.0128  0.2398 -0.4721
    2DSPC   GL2   18   4.639   5.014   1.279 -0.3508  0.0948  0.2378
    2DSPC   C1A   19   4.389   5.429   1.170  0.0591 -0.1901  0.2591
    2DSPC   C2A   20   3.982   5.559   1.052  0.2166  0.0505 -0.1637
    2DSPC   C3A   21   3.610   5.313   1.142  0.2505 -0.1649  0.0379
    2DSPC   C4A   22   3.222   5.174   1.036  0.0250  0.2043 -0.3031
    2DSPC   C5A   23   2.745   5.037   1.216  0.1442  0.1343 -0.1649
    2DSPC   C1B   24   4.328   4.664   1.051 -0.0155 -0.0941 -0.1301
    2DSPC   C2B   25   3.904   4.503   0.925  0.1659  0.0865 -0.0067
    2DSPC   C3B   26   3.445   4.327   0.980 -0.0814  0.3501  0.1969
    2DSPC   C4B   27   2.953   4.251   1.039  0.0462  0.1748  0.3030
    2DSPC   C5B   28   2.797   4.389   1.376  0.1636  0.2404 -0.2102
    3DSPC   NC3   29   0.417   1.474   2.056 -0.0732 -0.2028 -0.0851
    3DSPC   PO4   30   0.211   1.944   2.091  0.1896  0.1462  0.0837
    3DSPC   GL1   31   0.511   1.905   1.876  0.2874  0.1255 -0.3709
    3DSPC   GL2   32   0.686   2.128   1.707 -0.2638 -0.1469 -0.1655
    3DSPC   C1A   33   0.957   1.676   1.982  0.1654 -0.0532 -0.0300
    3DSPC   C2A   34   1.349   1.574   1.742  0.1818 -0.3386  0.3652
    3DSPC   C3A   35   1.488   1.559   1.372 -0.0693  0.0682  0.4457
    3DSPC   C4A   36   1.850   1.492   1.092 -0.2061  0.0855  0.1975
    3DSPC   C5A   37   2.080   1.658   0.847 -0.1437 -0.1109 -0.1608
    3DSPC   C1B   38   1.074   1.998   1.449  0.1418 -0.0893 -0.0873
    3DSPC   C2B   39   1.510   2.054   1.285  0.0624  0.2418  0.2090
    3DSPC   C3B   40   1.906   2.159   1.014 -0.2563  0.2092  0.0940
    3DSPC   C4B   41   2.096   2.089   0.613 -0.0663  0.0439  0.1766
    3DSPC   C5B   42   2.305   2.228   0.294  0.2111 -0.1415  0.1037
    4DSPC   NC3   43   4.679   7.031   2.572 -0.0252  0.0106  0.0663
    4DSPC   PO4   44   4.945   6.802   2.906 -0.1428 -0.3337 -0.2286
    4DSPC   GL1   45   4.568   6.734   3.099 -0.0133 -0.3963  0.1736
    4DSPC   GL2   46   4.534   6.727   3.490  0.1591  0.0820  0.0388
    4DSPC   C1A   47   4.166   6.939   3.253 -0.1434 -0.2578 -0.3903
    4DSPC   C2A   48   3.838   6.908   3.093  0.0315  0.1134  0.1163
    4DSPC   C3A   49   3.573   6.583   3.050 -0.1006 -0.1932  0.2332
    4DSPC   C4A   50   3.215   6.425   2.931  0.0520 -0.1079 -0.1722
    4DSPC   C5A   51   2.851   6.610   3.165  0.0740  0.0352 -0.0742
    4DSPC   C1B   52   4.238   6.460   3.258 -0.1985 -0.0153  0.1967
    4DSPC   C2B   53   4.026   6.222   3.118 -0.1149 -0.0077 -0.2038
    4DSPC   C3B   54   3.648   6.120   3.234 -0.1513 -0.0353 -0.2189
    4DSPC   C4B   55   3.240   5.968   3.057 -0.1037  0.4687 -0.0368
    4DSPC   C5B   56   2.900   5.817   2.904  0.3047 -0.3265  0.2955
    5DSPC   NC3   57   5.312   1.248   0.408  0.1694  0.1245  0.0059
    5DSPC   PO4   58   5.204   1.602   0.305  0.0276 -0.1234  0.0964
    5DSPC   GL1   59   4.831   1.919   0.174  0.1182  0.0244  0.1662
    5DSPC   GL2   60   4.618   1.963   0.268  0.0430 -0.0070  0.0320
    5DSPC   C1A   61   4.467   2.153  -0.151 -0.3464 -0.1991 -0.0118
    5DSPC   C2A   62   3.989   2.354  -0.128  0.0894 -0.2509  0.0852
    5DSPC   C3A   63   3.810   2.604   0.214  0.2426 -0.3842 -0.0267
    5DSPC   C4A   64   3.595   2.632   0.457 -0.1866  0.1114  0.4907
    5DSPC   C5A   65   3.181   2.621   0.514  0.1702  0.0361  0.0571
    5DSPC   C1B   66   4.105   2.004   0.278 -0.2149 -0.1732  0.0677
    5DSPC   C2B   67   3.707   2.048   0.191 -0.3029  0.0865  0.0913
    5DSPC   C3B   68   3.414   2.228   0.213  0.1222  0.0477  0.0206
    5DSPC   C4B   69   3.244   2.689  -0.030  0.0388 -0.4325 -0.1033
    5DSPC   C5B   70   3.389   3.051  -0.193 -0.0938  0.1567  0.5032
    6DSPC   NC3   71   4.979   6.791   3.811  0.2081  0.0256  0.0279
    6DSPC   PO4   72   4.918   7.088   3.455  0.2686 -0.4166 -0.0240
    6DSPC   GL1   73   4.528   7.267   3.438  0.1244  0.1622  0.0127
    6DSPC   GL2   74   4.278   7.166   3.749 -0.2299  0.0561 -0.2521
    6DSPC   C1A   75   4.195   7.507   3.235  0.0890  0.2382  0.0454
    6DSPC   C2A   76   3.730   7.466   3.267 -0.1767  0.3818 -0.1449
    6DSPC   C3A   77   3.405   7.405   3.437 -0.1050  0.1801  0.0440
    6DSPC   C4A   78   2.966   7.449   3.342 -0.1174 -0.1145 -0.3190
    6DSPC   C5A   79   2.636   7.251   3.195  0.2232 -0.2437 -0.1456
    6DSPC   C1B   80   3.802   7.005   3.657  0.0418  0.2449  0.0063
    6DSPC   C2B   81   3.539   6.931   3.423  0.2528  0.0553  0.1489
    6DSPC   C3B   82   3.056   6.931   3.416  0.0424 -0.2193  0.0011
    6DSPC   C4B   83   2.626   6.917   3.639 -0.1907  0.0070  0.1919
    6DSPC   C5B   84   2.272   6.767   3.956 -0.1350 -0.0205 -0.0590
    7DSPC   NC3   85   4.374   6.103   5.287  0.2185  0.0371 -0.2061
    7DSPC   PO4   86   4.528   6.524   5.120 -0.2802  0.2771 -0.3814
    7DSPC   GL1   87   4.339   6.713   5.514 -0.2839  0.1804  0.4074
    7DSPC   GL2   88   4.105   6.518   5.471 -0.2538 -0.2566 -0.0099
    7DSPC   C1A   89   4.168   7.129   5.560  0.1733  0.1105 -0.3198
    7DSPC   C2A   90   3.843   7.536   5.542 -0.0534  0.3467 -0.1987
    7DSPC   C3A   91   3.361   7.523   5.589 -0.1068  0.0358 -0.0722
    7DSPC   C4A   92   2.987   7.240   5.560 -0.0885  0.3453  0.2842
    7DSPC   C5A   93   2.811   7.165   5.129  0.1734  0.1902 -0.3158
    7DSPC   C1B   94   3.726   6.745   5.484 -0.1340  0.1219 -0.1483
    7DSPC   C2B   95   3.540   7.076   5.645 -0.2003 -0.3867 -0.4122
    7DSPC   C3B   96   3.455   7.291   6.044  0.1272  0.0948  0.2482
    7DSPC   C4B   97   3.067   7.302   6.305 -0.1508  0.1903 -0.1519
    7DSPC   C5B   98   2.708   7.147   6.618  0.1951 -0.0720  0.1941
    8DSPC   NC3   99   7.521   1.927   2.794  0.0810  0.1661  0.0510
    8DSPC   PO4  100   7.687   1.781   3.132  0.2392  0.0168 -0.0151
    8DSPC   GL1  101   8.081   1.892   2.889 -0.3205  0.0239  0.1978
    8DSPC   GL2  102   8.133   2.130   2.563 -0.2984 -0.1177  0.4499
    8DSPC   C1A  103   8.527   1.810   2.712  0.3708  0.0534  0.0653
    8DSPC   C2A  104   8.896   1.529   2.855 -0.1101  0.3140 -0.1548
    8DSPC   C3A  105   9.175   1.284   2.817  0.3576 -0.1051  0.1085
    8DSPC   C4A  106   9.442   1.060   3.190  0.0849 -0.1992  0.2267
    8DSPC   C5A  107   9.610   1.138   3.560 -0.0273 -0.0896  0.2060
    8DSPC   C1B  108   8.498   2.099   2.294  0.0044  0.0544 -0.1230
    8DSPC   C2B  109   8.919   1.896   2.307 -0.1707  0.0232 -0.4465
    8DSPC   C3B  110   9.240   1.769   2.547 -0.3082 -0.1378  0.0391
    8DSPC   C4B  111   9.639   1.571   2.544 -0.0638 -0.1067  0.2572
    8DSPC   C5B  112  10.078   1.615   2.702 -0.1841 -0.1847 -0.0380
    9DSPC   NC3  113   5.470   6.922   0.952  0.0580 -0.0904 -0.1216
    9DSPC   PO4  114   5.233   6.765   1.273 -0.0957 -0.0212 -0.0823
    9DSPC   GL1  115   4.862   6.968   1.433 -0.0237 -0.0428 -0.0311
    9DSPC   GL2  116   4.710   6.704   1.706  0.0179  0.0313 -0.0021
    9DSPC   C1A  117   4.375   7.021   1.609 -0.2068  0.0412  0.1365
    9DSPC   C2A  118   3.977   6.954   1.895  0.0445 -0.0399  0.0948
    9DSPC   C3A  119   3.725   6.714   2.223 -0.3117  0.2014 -0.1703
    9DSPC   C4A  120   3.555   6.803   2.554 -0.5622  0.0705 -0.1291
    9DSPC   C5A  121   3.376   7.071   2.960 -0.2066  0.1331 -0.0689
    9DSPC   C1B  122   4.262   6.524   1.799 -0.3033  0.2310  0.0414
    9DSPC   C2B  123   4.043   6.184   1.768 -0.1769  0.3234  0.2800
    9DSPC   C3B  124   3.659   5.991   1.799 -0.0286  0.1057 -0.1904
    9DSPC   C4B  125   3.408   5.651   1.911  0.2635 -0.0063 -0.1769
    9DSPC   C5B  126   3.175   5.422   2.066 -0.1707 -0.2531 -0.0810
   10DSPC   NC3  127   0.434   0.879   3.719  0.0507 -0.2670  0.1237
   10DSPC   PO4  128   0.229   0.628   3.279 -0.0331 -0.0159  0.1121
   10DSPC   GL1  129   0.584   0.377   3.296  0.1029  0.0834  0.1451
   10DSPC   GL2  130   0.592   0.421   3.588 -0.2284 -0.0541 -0.2062
   10DSPC   C1A  131   1.062   0.225   3.233 -0.0187 -0.2764  0.1113
   10DSPC   C2A  132   1.468   0.240   3.460 -0.0097 -0.2030 -0.2605
   10DSPC   C3A  133   1.761   0.182   3.654 -0.4344  0.1427 -0.0042
   10DSPC   C4A  134   2.217   0.284   3.718  0.1997 -0.0685 -0.0528
   10DSPC   C5A  135   2.521   0.463   3.959 -0.5195 -0.1197 -0.1851
   10DSPC   C1B  136   0.952   0.162   3.695 -0.0090  0.0424  0.1013
   10DSPC   C2B  137   1.287  -0.129   3.749 -0.2125  0.3233  0.1253
   10DSPC   C3B  138   1.179  -0.465   4.043 -0.4941  0.1348  0.1663
   10DSPC   C4B  139   0.968  -0.736   4.019  0.0287 -0.2552  0.1191
   10DSPC   C5B  140   0.751  -1.018   4.314 -0.0338  0.1608  0.0366
   11DSPC   NC3  141   5.192   2.089   1.722 -0.1050 -0.1675 -0.0505
   11DSPC   PO4  142   5.000   2.243   2.023  0.1492 -0.2589 -0.1562
   11DSPC   GL1  143   4.619   2.088   2.123 -0.1963  0.0543 -0.0432
   11DSPC   GL2  144   4.552   1.725   2.147  0.0526  0.3141 -0.1411
   11DSPC   C1A  145   4.077   1.999   2.113 -0.2527  0.0094 -0.0772
   11DSPC   C2A  146   3.635   2.005   1.976  0.2006 -0.0394  0.0216
   11DSPC   C3A  147   3.216   2.073   1.786 -0.2079 -0.0151 -0.1195
   11DSPC   C4A  148   2.791   2.122   1.921 -0.0194 -0.2601 -0.1413
   11DSPC   C5A  149   2.394   1.979   1.813 -0.1811 -0.0174 -0.2284
   11DSPC   C1B  150   4.123   1.520   2.155  0.0494  0.1429 -0.1126
   11DSPC   C2B  151   3.711   1.586   2.279 -0.2280  0.2942 -0.0836
   11DSPC   C3B  152   3.296   1.567   2.128  0.0107  0.1425  0.0300
   11DSPC   C4B  153   3.031   1.638   1.838  0.1744  0.1260  0.0466
   11DSPC   C5B  154   2.680   1.605   1.646 -0.0267 -0.0873  0.0574
   12DSPC   NC3  155   7.361   6.534   1.427  0.0608 -0.2905 -0.2340
   12DSPC   PO4  156   7.318   6.622   0.997 -0.0117 -0.0223  0.0609
   12DSPC   GL1  157   7.836   6.676   0.868 -0.0412 -0.1492 -0.0492
   12DSPC   GL2  158   8.094   6.373   0.868 -0.1625  0.2831 -0.0736
   12DSPC   C1A  159   8.237   6.807   1.093  0.1807 -0.1370 -0.0669
   12DSPC   C2A  160   8.703   6.882   1.296  0.1056 -0.0110  0.2564
   12DSPC   C3A  161   9.108   7.005   1.197 -0.0286  0.0439  0.0389
   12DSPC   C4A  162   9.484   7.058   1.107  0.1541 -0.3190  0.2491
   12DSPC   C5A  163   9.834   7.301   1.003 -0.2612 -0.2438  0.0440
   12DSPC   C1B  164   8.417   6.079   0.754  0.1305  0.0243  0.0803
   12DSPC   C2B  165   8.875   6.065   0.696 -0.1482 -0.2561 -0.2044
   12DSPC   C3B  166   9.276   6.010   0.841  0.0394  0.2753  0.0308
   12DSPC   C4B  167   9.666   6.030   0.891 -0.2689  0.1066 -0.2877
   12DSPC   C5B  168   9.911   6.360   0.819 -0.4056  0.1182 -0.2698
   13DSPC   NC3  169   0.601   7.568   2.010 -0.3584  0.0998  0.1823
   13DSPC   PO4  170   0.541   7.817   2.346 -0.1003  0.1157 -0.0506
   13DSPC   GL1  171   0.839   7.965   2.013  0.2064  0.5376 -0.1505
   13DSPC   GL2  172   1.056   8.187   2.017  0.1570  0.1118 -0.2870
   13DSPC   C1A  173   0.824   8.241   1.602 -0.4735  0.2026  0.1251
   13DSPC   C2A  174   0.892   8.334   1.162  0.2020 -0.0585  0.0577
   13DSPC   C3A  175   1.169   8.128   0.854  0.0164 -0.0578 -0.1158
   13DSPC   C4A  176   1.628   8.055   1.026 -0.0168  0.1742  0.0604
   13DSPC   C5A  177   1.990   8.219   1.101  0.1684 -0.2058  0.0007
   13DSPC   C1B  178   1.489   8.426   2.025 -0.0317  0.0863  0.1435
   13DSPC   C2B  179   1.878   8.319   2.065  0.0983 -0.3058 -0.0012
   13DSPC   C3B  180   2.280   8.375   2.357  0.1074 -0.0068 -0.0140
   13DSPC   C4B  181   2.462   8.722   2.579 -0.0084 -0.0402 -0.0200
   13DSPC   C5B  182   2.777   8.880   2.918  0.3170  0.0894  0.2859
   14DSPC   NC3  183   0.295   0.978   2.846  0.1171  0.2683 -0.2330
   14DSPC   PO4  184   0.346   1.236   3.252 -0.3639  0.1443 -0.1189
   14DSPC   GL1  185   0.744   1.279   3.188  0.0333  0.1840  0.1698
   14DSPC   GL2  186   0.813   1.658   3.206 -0.0267  0.0650  0.2463
   14DSPC   C1A  187   1.177   1.021   3.177  0.2973 -0.1070 -0.0605
   14DSPC   C2A  188   1.492   0.771   2.956  0.1472  0.2558 -0.0062
   14DSPC   C3A  189   1.787   0.562   3.022 -0.0427 -0.2532  0.2533
   14DSPC   C4A  190   2.098   0.704   3.335 -0.1676  0.2949  0.2758
   14DSPC   C5A  191   2.514   0.779   3.414 -0.1622 -0.3676 -0.0320
   14DSPC   C1B  192   1.273   1.867   3.289  0.2281  0.0448  0.2457
   14DSPC   C2B  193   1.662   2.004   3.241  0.0002 -0.0951  0.1985
   14DSPC   C3B  194   2.091   2.085   3.343  0.2959  0.1004 -0.0044
   14DSPC   C4B  195   2.375   1.954   3.648 -0.0363  0.1071 -0.0155
   14DSPC   C5B  196   2.488   2.124   4.027 -0.1302  0.2662  0.0669
   15DSPC   NC3  197   0.618   4.153   4.365  0.0427  0.0098 -0.1010
   15DSPC   PO4  198   0.582   4.383   4.816 -0.2539 -0.0466  0.1783
   15DSPC   GL1  199   1.035   4.529   4.927 -0.2003  0.1030 -0.0837
   15DSPC   GL2  200   1.104   4.852   4.955  0.0316  0.0902 -0.1611
   15DSPC   C1A  201   1.354   4.440   4.674  0.1384 -0.0786 -0.1466
   15DSPC   C2A  202   1.866   4.365   4.583 -0.2358  0.0002 -0.1347
   15DSPC   C3A  203   2.272   4.182   4.445  0.0680 -0.0423 -0.5501
   15DSPC   C4A  204   2.576   4.196   4.081  0.0484 -0.4438 -0.2034
   15DSPC   C5A  205   2.798   4.186   3.571  0.0790  0.5819 -0.1847
   15DSPC   C1B  206   1.443   4.653   5.164  0.3823  0.0659 -0.1272
   15DSPC   C2B  207   1.899   4.532   5.111  0.2895  0.0910 -0.2425
   15DSPC   C3B  208   2.269   4.635   4.738  0.1914  0.3146 -0.1944
   15DSPC   C4B  209   2.577   4.738   4.408 -0.0733  0.0427  0.0465
   15DSPC   C5B  210   3.038   4.646   4.470  0.1007 -0.0374  0.1063
   16DSPC   NC3  211   0.582   6.804   3.316  0.1421  0.1427  0.2634
   16DSPC   PO4  212   0.155   6.781   3.385 -0.0022 -0.0818  0.2402
   16DSPC   GL1  213   0.334   7.022   3.686 -0.3391 -0.0380  0.2349
   16DSPC   GL2  214   0.368   6.771   3.857  0.3449  0.1198 -0.0250
   16DSPC   C1A  215   0.532   7.219   3.960 -0.2348  0.0174  0.0595
   16DSPC   C2A  216   0.678   7.121   4.352  0.0328  0.0183  0.1108
   16DSPC   C3A  217   1.132   6.929   4.557 -0.2081 -0.3704 -0.3060
   16DSPC   C4A  218   1.528   6.985   4.360  0.1516 -0.0088 -0.1106
   16DSPC   C5A  219   1.967   6.991   4.374 -0.0073  0.0239 -0.1943
   16DSPC   C1B  220   0.783   6.499   3.760  0.1484 -0.3360  0.0535
   16DSPC   C2B  221   1.212   6.296   3.792  0.1763  0.1056 -0.0168
   16DSPC   C3B  222   1.533   6.408   3.997  0.2159  0.1280 -0.2306
   16DSPC   C4B  223   2.015   6.388   4.076  0.1753  0.4278 -0.0215
   16DSPC   C5B  224   2.282   6.522   4.352  0.1791 -0.0496  0.0095
   17DSPC   NC3  225   4.770   6.324   4.413  0.0636 -0.2685 -0.1537
   17DSPC   PO4  226   4.840   6.389   3.967  0.0451  0.4590  0.0071
   17DSPC   GL1  227   4.467   6.563   4.056 -0.2970 -0.0297 -0.1142
   17DSPC   GL2  228   4.554   6.950   4.105  0.1165  0.0720 -0.0274
   17DSPC   C1A  229   4.142   6.657   3.820 -0.1141 -0.0105  0.1267
   17DSPC   C2A  230   3.810   6.468   3.560 -0.0805  0.1754 -0.2673
   17DSPC   C3A  231   3.379   6.473   3.499 -0.2242 -0.2130 -0.1006
   17DSPC   C4A  232   2.901   6.505   3.666  0.2125 -0.0236 -0.0742
   17DSPC   C5A  233   2.428   6.438   3.524 -0.2526 -0.2566 -0.0001
   17DSPC   C1B  234   4.077   6.915   4.269  0.1592 -0.0266  0.5487
   17DSPC   C2B  235   3.851   6.832   4.472  0.0009  0.0382 -0.1057
   17DSPC   C3B  236   3.700   6.826   4.968  0.2068 -0.0310  0.0236
   17DSPC   C4B  237   3.248   6.794   5.147 -0.0290 -0.1684 -0.2575
   17DSPC   C5B  238   2.954   6.740   5.336 -0.2159 -0.2240 -0.0133
   18DSPC   NC3  239   4.933   0.425   1.776  0.1125  0.2675  0.1585
   18DSPC   PO4  240   4.925   0.754   2.201 -0.0365 -0.0441 -0.1291
   18DSPC   GL1  241   4.471   0.835   2.081 -0.0980 -0.0229 -0.3322
   18DSPC   GL2  242   4.272   0.692   2.308  0.0490  0.1606  0.1555
   18DSPC   C1A  243   3.957   0.938   1.955 -0.1981  0.0711 -0.1164
   18DSPC   C2A  244   3.661   1.251   1.928 -0.0020  0.1739  0.1681
   18DSPC   C3A  245   3.279   1.169   1.699 -0.2970 -0.0603  0.2142
   18DSPC   C4A  246   2.868   1.154   1.646 -0.2641 -0.0107 -0.2123
   18DSPC   C5A  247   2.521   1.206   2.020  0.0179  0.1118 -0.0399
   18DSPC   C1B  248   3.888   0.585   2.364 -0.1699 -0.0662 -0.0061
   18DSPC   C2B  249   3.484   0.546   2.499  0.0384  0.0574  0.3455
   18DSPC   C3B  250   3.113   0.476   2.316 -0.1366 -0.2685 -0.0776
   18DSPC   C4B  251   2.673   0.272   2.422  0.0916 -0.2172 -0.0420
   18DSPC   C5B  252   2.502  -0.121   2.547 -0.3818  0.0996  0.0204
   19DSPC   NC3  253   5.402   3.481   5.022  0.0232  0.1570 -0.0269
   19DSPC   PO4  254   5.222   3.140   4.842 -0.0544 -0.1413 -0.0845
   19DSPC   GL1  255   4.847   2.975   4.643 -0.1766 -0.3603  0.0277
   19DSPC   GL2  256   4.692   2.642   4.708  0.0647  0.0102 -0.1230
   19DSPC   C1A  257   4.431   3.005   4.649  0.2519  0.0289  0.2845
   19DSPC   C2A  258   4.032   3.120   4.768  0.3011  0.2962 -0.2443
   19DSPC   C3A  259   3.536   3.200   4.618  0.1511  0.3360 -0.3550
   19DSPC   C4A  260   3.201   3.396   4.584  0.2565 -0.3180  0.3506
   19DSPC   C5A  261   2.801   3.631   4.561 -0.2624 -0.1129  0.1905
   19DSPC   C1B  262   4.353   2.733   5.029  0.1264 -0.1124  0.0983
   19DSPC   C2B  263   3.913   2.830   5.136 -0.1436  0.2575 -0.5502
   19DSPC   C3B  264   3.589   2.574   5.009  0.2319 -0.0680  0.0729
   19DSPC   C4B  265   3.440   2.395   4.600  0.0517 -0.1800 -0.0009
   19DSPC   C5B  266   3.849   2.237   4.504  0.0298 -0.1714  0.2150
   20DSPC   NC3  267   4.804   3.561   0.108 -0.0389 -0.1517  0.1401
   20DSPC   PO4  268   5.041   3.895   0.246 -0.4569 -0.0126  0.0803
   20DSPC   GL1  269   4.636   3.989   0.364 -0.1276 -0.3505  0.3038
   20DSPC   GL2  270   4.812   4.176   0.605 -0.1345 -0.0487  0.2785
   20DSPC   C1A  271   4.363   3.945   0.657  0.0899  0.2015  0.1012
   20DSPC   C2A  272   3.871   3.926   0.703  0.1671 -0.0892  0.0638
   20DSPC   C3A  273   3.477   4.069   0.565 -0.0730 -0.3026  0.1351
   20DSPC   C4A  274   3.107   4.142   0.361  0.0031  0.1039  0.0851
   20DSPC   C5A  275   2.762   4.402   0.487  0.2314 -0.1515 -0.1070
   20DSPC   C1B  276   4.410   4.402   0.582  0.0647  0.5387 -0.2045
   20DSPC   C2B  277   3.996   4.511   0.447 -0.0331  0.0675  0.0501
   20DSPC   C3B  278   3.906   4.552  -0.033  0.1405 -0.0835 -0.1242
   20DSPC   C4B  279   3.702   4.532  -0.424 -0.3192  0.1425 -0.2353
   20DSPC   C5B  280   3.507   4.444  -0.833 -0.0745 -0.2670 -0.2674
   21DSPC   NC3  281   0.135   0.929   4.604  0.1320 -0.0961 -0.1014
   21DSPC   PO4  282   0.144   0.971   4.128 -0.0674  0.2602 -0.0747
   21DSPC   GL1  283   0.534   1.061   4.230 -0.1227  0.0592 -0.1168
   21DSPC   GL2  284   0.766   0.884   4.075 -0.3365  0.1440 -0.3963
   21DSPC   C1A  285   0.770   0.926   4.590 -0.0227 -0.0244  0.5525
   21DSPC   C2A  286   1.058   0.627   4.743 -0.1311 -0.0502  0.3030
   21DSPC   C3A  287   1.270   0.450   4.415  0.1528  0.0212 -0.0058
   21DSPC   C4A  288   1.308   0.378   3.914 -0.0766 -0.1979  0.1070
   21DSPC   C5A  289   1.133   0.663   3.534  0.1366 -0.2913 -0.3002
   21DSPC   C1B  290   1.173   0.863   4.023  0.1005  0.0534 -0.0958
   21DSPC   C2B  291   1.647   0.881   4.151  0.0298 -0.1713  0.1434
   21DSPC   C3B  292   1.894   0.773   4.617  0.4188  0.2444 -0.1711
   21DSPC   C4B  293   2.325   0.750   4.877  0.0008  0.0101  0.1514
   21DSPC   C5B  294   2.633   0.721   5.282  0.1360 -0.2429 -0.1122
   22DSPC   NC3  295   4.855   6.894   0.984  0.3511  0.0624  0.1974
   22DSPC   PO4  296   4.827   7.283   1.083 -0.0393 -0.2128  0.0044
   22DSPC   GL1  297   4.399   7.083   1.143  0.3281 -0.2488  0.0482
   22DSPC   GL2  298   4.213   6.752   0.896  0.0277 -0.0707 -0.0947
   22DSPC   C1A  299   4.036   6.834   1.327  0.1902 -0.1398 -0.0023
   22DSPC   C2A  300   3.800   6.562   1.614  0.0954  0.1591 -0.0675
   22DSPC   C3A  301   3.481   6.445   1.766 -0.2749  0.1154 -0.1687
   22DSPC   C4A  302   3.073   6.623   1.949  0.2461 -0.0516 -0.3374
   22DSPC   C5A  303   3.200   6.830   2.273  0.0670 -0.0203 -0.1204
   22DSPC   C1B  304   4.021   6.674   0.544 -0.0899  0.1937  0.3041
   22DSPC   C2B  305   3.687   6.308   0.282 -0.1020 -0.2335 -0.3487
   22DSPC   C3B  306   3.255   6.406   0.232 -0.0190 -0.1955 -0.1586
   22DSPC   C4B  307   2.894   6.325   0.124 -0.1855 -0.0194  0.1408
   22DSPC   C5B  308   2.675   6.231  -0.251  0.1427 -0.1679  0.2993
   23DSPC   NC3  309   0.336   3.192   2.419 -0.1526 -0.1579 -0.0116
   23DSPC   PO4  310   0.318   3.557   2.089  0.2564 -0.1428  0.0044
   23DSPC   GL1  311   0.795   3.434   2.235 -0.0013 -0.0322  0.1725
   23DSPC   GL2  312   0.740   3.479   2.516  0.1115  0.1284  0.1843
   23DSPC   C1A  313   1.142   3.129   2.378 -0.1069 -0.0803 -0.0704
   23DSPC   C2A  314   1.569   3.407   2.251 -0.1300 -0.1067  0.0582
   23DSPC   C3A  315   1.938   3.279   2.015  0.1391 -0.1116 -0.2223
   23DSPC   C4A  316   2.369   3.486   2.033 -0.1702 -0.1950 -0.0952
   23DSPC   C5A  317   2.645   3.548   1.682  0.0883  0.0137 -0.3991
   23DSPC   C1B  318   1.118   3.726   2.383 -0.1046 -0.2039 -0.3786
   23DSPC   C2B  319   1.532   3.833   2.557 -0.3428 -0.2470 -0.2939
   23DSPC   C3B  320   1.958   3.819   2.433  0.1067 -0.0888  0.1781
   23DSPC   C4B  321   2.282   3.651   2.490  0.2008  0.1271  0.3101
   23DSPC   C5B  322   2.692   3.613   2.463  0.0898 -0.1597  0.0299
   24DSPC   NC3  323   4.685   1.939   4.354  0.3371 -0.1736 -0.0852
   24DSPC   PO4  324   4.954   1.550   4.143  0.0100 -0.2090 -0.0192
   24DSPC   GL1  325   4.479   1.542   4.023 -0.0510  0.1719  0.0372
   24DSPC   GL2  326   4.203   1.396   4.131  0.3541  0.0308  0.1712
   24DSPC   C1A  327   4.324   1.406   3.619  0.0315  0.0930 -0.0404
   24DSPC   C2A  328   4.161   1.304   3.282 -0.0448  0.1983 -0.2269
   24DSPC   C3A  329   3.783   1.233   3.206 -0.2886 -0.2866  0.4307
   24DSPC   C4A  330   3.334   1.244   3.118 -0.1382  0.1063  0.0972
   24DSPC   C5A  331   3.092   0.850   3.150 -0.1451 -0.3514  0.1936
   24DSPC   C1B  332   3.872   1.636   3.836 -0.2875  0.0206 -0.3246
   24DSPC   C2B  333   3.724   1.653   3.502  0.0165  0.0444  0.0511
   24DSPC   C3B  334   3.300   1.681   3.431  0.1260  0.2007 -0.0092
   24DSPC   C4B  335   2.835   1.751   3.521 -0.3532  0.0809 -0.0468
   24DSPC   C5B  336   2.648   1.859   3.145 -0.2946  0.0554  0.1008
   25DSPC   NC3  337   0.409   4.044   0.167  0.2403  0.0048 -0.0459
   25DSPC   PO4  338   0.348   4.435   0.383 -0.2173  0.0472  0.1330
   25DSPC   GL1  339   0.859   4.400   0.316 -0.3140  0.0780  0.2259
   25DSPC   GL2  340   0.853   4.312  -0.124  0.1102 -0.1541 -0.0328
   25DSPC   C1A  341   1.229   4.470   0.176 -0.0173 -0.0375 -0.1224
   25DSPC   C2A  342   1.604   4.700   0.169 -0.0222  0.0005 -0.1336
   25DSPC   C3A  343   1.991   4.867   0.118  0.0685 -0.1654  0.0514
   25DSPC   C4A  344   2.000   5.077  -0.311  0.1843  0.4586  0.1893
   25DSPC   C5A  345   1.664   4.964  -0.643  0.0527 -0.2278  0.1368
   25DSPC   C1B  346   1.202   4.106  -0.317 -0.0775 -0.1623 -0.0994
   25DSPC   C2B  347   1.717   4.016  -0.515  0.1798 -0.1890 -0.0572
   25DSPC   C3B  348   2.223   3.906  -0.568 -0.1608  0.3003  0.1818
   25DSPC   C4B  349   2.618   3.791  -0.450 -0.2289 -0.1257 -0.0609
   25DSPC   C5B  350   2.989   3.905  -0.424  0.0872 -0.2248  0.3078
   26DSPC   NC3  351   4.830   0.014   3.245 -0.2587  0.0259 -0.3062
   26DSPC   PO4  352   4.747   0.023   2.801 -0.0586  0.2603 -0.1292
   26DSPC   GL1  353   4.382   0.087   2.792  0.5744  0.1354  0.1031
   26DSPC   GL2  354   4.201  -0.208   2.735 -0.1734  0.1523 -0.2420
   26DSPC   C1A  355   4.053   0.134   2.409  0.0200 -0.0745  0.0459
   26DSPC   C2A  356   3.666   0.100   2.285 -0.2691 -0.0480 -0.2590
   26DSPC   C3A  357   3.353  -0.226   2.332  0.0229  0.1231 -0.0011
   26DSPC   C4A  358   3.014  -0.415   2.639 -0.0611 -0.0044 -0.2290
   26DSPC   C5A  359   2.909  -0.814   2.730  0.0535  0.1030  0.0066
   26DSPC   C1B  360   4.294  -0.701   2.775 -0.0810  0.0860 -0.2462
   26DSPC   C2B  361   4.047  -1.037   2.653  0.1612  0.1032 -0.1657
   26DSPC   C3B  362   3.655  -1.345   2.670  0.1262  0.0854 -0.2501
   26DSPC   C4B  363   3.267  -1.292   2.405  0.2082  0.2825 -0.0298
   26DSPC   C5B  364   3.253  -1.548   2.145 -0.3503  0.0694 -0.0842
   27DSPC   NC3  365   0.110   1.949   1.306 -0.1342  0.1311  0.0099
   27DSPC   PO4  366   0.314   1.666   1.020 -0.2567 -0.3006  0.1701
   27DSPC   GL1  367   0.592   1.657   0.785 -0.5971 -0.1740  0.3639
   27DSPC   GL2  368   0.756   2.043   0.698  0.2072 -0.2086  0.0786
   27DSPC   C1A  369   0.986   1.468   0.581 -0.3848 -0.1811  0.1333
   27DSPC   C2A  370   1.449   1.401   0.815  0.0911 -0.0226 -0.1221
   27DSPC   C3A  371   1.788   1.222   0.656 -0.1169  0.4307  0.0681
   27DSPC   C4A  372   2.182   1.002   0.504 -0.0005 -0.0066  0.2738
   27DSPC   C5A  373   2.572   1.173   0.724  0.0932 -0.0568 -0.2112
   27DSPC   C1B  374   0.863   2.457   0.608  0.0396  0.0561 -0.0128
   27DSPC   C2B  375   0.959   2.706   0.173 -0.4778  0.1605  0.0500
   27DSPC   C3B  376   1.136   3.028  -0.144  0.1172  0.1167  0.1773
   27DSPC   C4B  377   1.429   3.329  -0.215  0.1783 -0.0504 -0.1825
   27DSPC   C5B  378   1.557   3.657  -0.218  0.0740  0.1369  0.0927
   28DSPC   NC3  379   5.104   4.428   0.280  0.0412  0.0658  0.1850
   28DSPC   PO4  380   5.026   4.657   0.773  0.2024  0.1218 -0.0771
   28DSPC   GL1  381   4.672   4.769   0.420  0.4139 -0.0359 -0.3027
   28DSPC   GL2  382   4.635   4.586   0.190  0.3031  0.0099  0.2866
   28DSPC   C1A  383   4.279   5.022   0.351 -0.0747  0.0707 -0.2188
   28DSPC   C2A  384   3.850   4.954   0.304 -0.0414 -0.1708  0.2497
   28DSPC   C3A  385   3.425   5.010   0.184 -0.1443 -0.1359  0.0729
   28DSPC   C4A  386   3.115   4.820   0.425  0.0718  0.0301  0.3736
   28DSPC   C5A  387   3.152   4.688   0.815  0.3164  0.2039 -0.1380
   28DSPC   C1B  388   4.429   4.269   0.008  0.1082 -0.0326  0.1774
   28DSPC   C2B  389   4.119   4.048   0.212  0.1105  0.2631  0.0392
   28DSPC   C3B  390   3.708   4.083   0.118 -0.2307  0.1766 -0.2750
   28DSPC   C4B  391   3.358   4.070  -0.127  0.3735  0.2558  0.0784
   28DSPC   C5B  392   3.166   4.358  -0.514 -0.4372 -0.0629 -0.2893
   29DSPC   NC3  393   0.159   6.699   2.544 -0.1536  0.1366 -0.2181
   29DSPC   PO4  394   0.351   6.992   2.803 -0.3826  0.4925 -0.2041
   29DSPC   GL1  395   0.592   6.854   2.572  0.3958  0.3062 -0.0245
   29DSPC   GL2  396   0.737   6.607   2.810 -0.1829 -0.0369 -0.1011
   29DSPC   C1A  397   1.027   6.776   2.450  0.0124 -0.2873  0.0718
   29DSPC   C2A  398   1.368   7.015   2.490 -0.0916 -0.1713  0.1155
   29DSPC   C3A  399   1.676   7.259   2.535  0.0386  0.0355 -0.3412
   29DSPC   C4A  400   2.036   7.322   2.316 -0.1170  0.1149 -0.0889
   29DSPC   C5A  401   2.159   7.248   1.993 -0.2038  0.0195 -0.0125
   29DSPC   C1B  402   1.027   6.853   2.981 -0.3468 -0.2691  0.1218
   29DSPC   C2B  403   1.468   7.092   2.984 -0.1120  0.2580  0.1132
   29DSPC   C3B  404   1.952   7.279   2.968  0.2629 -0.0318 -0.0706
   29DSPC   C4B  405   2.316   7.130   2.802  0.0604 -0.1602  0.0173
   29DSPC   C5B  406   2.582   6.973   2.344 -0.0762 -0.0428 -0.0687
   30DSPC   NC3  407   0.373   2.604   0.780 -0.0893  0.1036  0.4717
   30DSPC   PO4  408   0.339   2.217   0.859  0.0948  0.0884  0.0310
   30DSPC   GL1  409   0.745   2.446   1.047 -0.0741 -0.2285  0.2455
   30DSPC   GL2  410   0.856   2.445   1.419  0.1592 -0.1705  0.2148
   30DSPC   C1A  411   1.098   2.223   1.011 -0.4259  0.0674 -0.1262
   30DSPC   C2A  412   1.487   2.508   0.893  0.2696  0.1010  0.2752
   30DSPC   C3A  413   1.911   2.674   0.905 -0.0092  0.0338  0.4147
   30DSPC   C4A  414   2.300   2.441   0.881 -0.0187  0.1900  0.0279
   30DSPC   C5A  415   2.722   2.380   0.932  0.0120 -0.1081  0.0074
   30DSPC   C1B  416   1.361   2.521   1.444  0.1153  0.2264 -0.1197
   30DSPC   C2B  417   1.828   2.389   1.430 -0.3559 -0.3288  0.0606
   30DSPC   C3B  418   2.012   2.310   1.799 -0.1116  0.0194 -0.0374
   30DSPC   C4B  419   2.194   2.306   2.156  0.2226  0.0758 -0.1003
   30DSPC   C5B  420   2.291   2.011   2.418  0.1938  0.3507  0.1036
   31DSPC   NC3  421   0.380   5.938   1.470 -0.1302 -0.0094 -0.0002
   31DSPC   PO4  422   0.465   5.980   1.927 -0.0259 -0.1365  0.1112
   31DSPC   GL1  423   0.844   5.992   1.883 -0.3030  0.1403  0.1663
   31DSPC   GL2  424   1.094   5.922   2.211  0.1266 -0.0117  0.1568
   31DSPC   C1A  425   1.159   6.273   1.741 -0.1775  0.2699  0.4396
   31DSPC   C2A  426   1.567   6.408   1.905 -0.1286  0.0255  0.0822
   31DSPC   C3A  427   1.926   6.187   2.175  0.0073 -0.0980  0.0359
   31DSPC   C4A  428   2.400   6.021   2.003  0.5368 -0.0162  0.0358
   31DSPC   C5A  429   2.578   6.317   1.759 -0.0279 -0.0599 -0.1502
   31DSPC   C1B  430   1.463   5.968   2.020  0.1561  0.1747  0.2033
   31DSPC   C2B  431   1.835   5.911   1.745 -0.0439  0.0751 -0.0252
   31DSPC   C3B  432   2.200   5.756   1.488  0.2886  0.1392  0.5198
   31DSPC   C4B  433   2.695   5.857   1.582 -0.0984 -0.2406  0.0552
   31DSPC   C5B  434   3.063   6.157   1.716 -0.0911 -0.4374 -0.2132
   32DSPC   NC3  435   4.991   2.779   2.088  0.1566  0.0154 -0.1556
   32DSPC   PO4  436   4.958   3.189   2.227  0.1303  0.3423  0.0824
   32DSPC   GL1  437   4.543   3.297   2.547 -0.1294 -0.2312 -0.0509
   32DSPC   GL2  438   4.362   2.983   2.647 -0.2480 -0.0187  0.0809
   32DSPC   C1A  439   4.219   3.530   2.516 -0.0916 -0.0809 -0.2629
   32DSPC   C2A  440   3.880   3.749   2.705 -0.0796  0.4209 -0.1892
   32DSPC   C3A  441   3.688   3.666   3.067 -0.0643 -0.1449 -0.1384
   32DSPC   C4A  442   3.694   3.280   3.354 -0.0593 -0.0346  0.0793
   32DSPC   C5A  443   3.445   2.896   3.450 -0.0080  0.0025  0.2443
   32DSPC   C1B  444   4.038   2.716   2.675 -0.0673  0.2926 -0.1461
   32DSPC   C2B  445   3.876   2.373   2.919 -0.0447  0.0478  0.0280
   32DSPC   C3B  446   3.867   1.958   2.671 -0.1499 -0.0734 -0.0955
   32DSPC   C4B  447   3.479   1.922   2.492  0.3114 -0.0431 -0.2414
   32DSPC   C5B  448   3.107   2.002   2.254 -0.1063  0.0666 -0.1318
   33DSPC   NC3  449   0.244   5.006   0.380 -0.1298  0.1383 -0.0023
   33DSPC   PO4  450   0.189   4.975  -0.155  0.1620  0.0289 -0.0634
   33DSPC   GL1  451   0.591   4.775   0.169  0.0566 -0.0068  0.1094
   33DSPC   GL2  452   0.882   4.857   0.060 -0.0549 -0.2376  0.1756
   33DSPC   C1A  453   0.897   4.779   0.595  0.1357  0.3169  0.3553
   33DSPC   C2A  454   1.393   4.679   0.709 -0.0194 -0.1896  0.0053
   33DSPC   C3A  455   1.863   4.703   0.719 -0.2106  0.0872  0.4790
   33DSPC   C4A  456   2.291   4.687   0.545 -0.0358  0.2007 -0.2043
   33DSPC   C5A  457   2.677   4.899   0.707  0.1395 -0.2427 -0.2825
   33DSPC   C1B  458   1.292   5.173   0.016  0.2763 -0.0475  0.3509
   33DSPC   C2B  459   1.771   5.349   0.086 -0.1897  0.1079  0.3639
   33DSPC   C3B  460   2.189   5.401   0.098 -0.2966  0.0325  0.0115
   33DSPC   C4B  461   2.447   5.321  -0.284  0.1334 -0.1642  0.1778
   33DSPC   C5B  462   2.306   5.173  -0.747 -0.0081 -0.1156  0.1037
   34DSPC   NC3  463   0.399   2.775   3.902  0.1353 -0.0452 -0.0857
   34DSPC   PO4  464   0.546   3.225   3.913  0.0239  0.0019 -0.0957
   34DSPC   GL1  465   0.826   2.936   3.775  0.1550 -0.1631  0.1903
   34DSPC   GL2  466   0.868   2.834   4.038 -0.0468  0.0769 -0.2217
   34DSPC   C1A  467   1.293   3.020   3.836 -0.2820  0.2415 -0.0023
   34DSPC   C2A  468   1.440   3.427   3.722  0.1118  0.0605 -0.0115
   34DSPC   C3A  469   1.855   3.638   3.524  0.0770 -0.0178  0.0617
   34DSPC   C4A  470   2.240   3.549   3.381  0.0439 -0.2675  0.1924
   34DSPC   C5A  471   2.576   3.362   3.681 -0.0319 -0.2478  0.4765
   34DSPC   C1B  472   1.062   2.905   4.386  0.1211 -0.3749 -0.1970
   34DSPC   C2B  473   1.517   2.889   4.480 -0.0140 -0.2301 -0.2335
   34DSPC   C3B  474   2.009   2.956   4.496  0.0996  0.2976 -0.1805
   34DSPC   C4B  475   2.342   2.643   4.589 -0.2669 -0.2229 -0.1785
   34DSPC   C5B  476   2.654   2.693   4.911 -0.1912 -0.0599 -0.5242
   35DSPC   NC3  477   0.548   3.903   2.337 -0.0195 -0.0540 -0.0124
   35DSPC   PO4  478   0.704   3.804   2.891  0.2422 -0.0126  0.0213
   35DSPC   GL1  479   1.138   3.875   2.893 -0.1250  0.2149  0.3188
   35DSPC   GL2  480   1.224   4.031   3.177  0.4339 -0.2014 -0.2151
   35DSPC   C1A  481   1.670   3.787   3.008 -0.1329  0.1549 -0.2485
   35DSPC   C2A  482   2.050   3.880   3.034 -0.1706  0.1720 -0.0198
   35DSPC   C3A  483   2.426   3.937   2.893  0.1660 -0.2570  0.3357
   35DSPC   C4A  484   2.456   4.117   2.427 -0.0529  0.4401 -0.4203
   35DSPC   C5A  485   2.309   4.077   2.074 -0.0555 -0.1149  0.0209
   35DSPC   C1B  486   1.150   4.535   3.275  0.1044  0.2365 -0.2543
   35DSPC   C2B  487   1.558   4.886   3.158  0.3652  0.1403  0.0296
   35DSPC   C3B  488   1.876   5.162   3.212  0.2640  0.1037 -0.0828
   35DSPC   C4B  489   2.133   5.288   2.964 -0.0076  0.2390 -0.1002
   35DSPC   C5B  490   2.250   5.411   2.553 -0.1533 -0.3889  0.1680
   36DSPC   NC3  491   4.961   4.901   2.113  0.3942 -0.1386 -0.2379
   36DSPC   PO4  492   5.030   5.295   2.385  0.0551 -0.4812 -0.1658
   36DSPC   GL1  493   4.720   5.285   2.040 -0.2315 -0.0352 -0.3546
   36DSPC   GL2  494   4.553   5.306   1.682 -0.1375 -0.0792 -0.2164
   36DSPC   C1A  495   4.232   5.153   2.031  0.1039 -0.0860  0.2800
   36DSPC   C2A  496   4.060   4.972   2.454 -0.0176  0.1547  0.3674
   36DSPC   C3A  497   3.724   4.763   2.676  0.1343 -0.0313 -0.3458
   36DSPC   C4A  498   3.233   4.808   2.800  0.1297 -0.1006  0.0708
   36DSPC   C5A  499   2.812   5.007   2.687  0.1202  0.3061  0.1249
   36DSPC   C1B  500   4.059   5.349   1.568 -0.2609  0.0559  0.2413
   36DSPC   C2B  501   3.728   5.638   1.458  0.0370 -0.1158  0.1976
   36DSPC   C3B  502   3.270   5.775   1.399 -0.3470  0.1304 -0.1592
   36DSPC   C4B  503   2.916   5.572   1.162  0.0376  0.1528 -0.2399
   36DSPC   C5B  504   2.462   5.540   1.153  0.3140  0.2663  0.1229
   37DSPC   NC3  505   0.075   2.593   1.970  0.0379  0.1685  0.1147
   37DSPC   PO4  506   0.342   2.715   2.360 -0.0776 -0.2134 -0.0615
   37DSPC   GL1  507   0.616   2.592   2.596  0.0024 -0.3639 -0.2670
   37DSPC   GL2  508   0.925   2.563   2.388 -0.1051  0.0090 -0.0634
   37DSPC   C1A  509   1.031   2.682   2.891 -0.1718  0.3025 -0.1053
   37DSPC   C2A  510   1.408   2.906   2.803 -0.2293  0.0836  0.2597
   37DSPC   C3A  511   1.711   2.943   2.426  0.2446 -0.2432 -0.3256
   37DSPC   C4A  512   1.978   2.719   2.271 -0.0023  0.0205 -0.4000
   37DSPC   C5A  513   2.061   2.823   1.855 -0.2259 -0.1996 -0.1229
   37DSPC   C1B  514   1.357   2.465   2.450  0.2131  0.1276 -0.1852
   37DSPC   C2B  515   1.719   2.218   2.335  0.1625  0.0537 -0.2613
   37DSPC   C3B  516   1.873   1.893   2.041  0.4073  0.1816 -0.0541
   37DSPC   C4B  517   2.041   1.539   1.958 -0.1419 -0.0971 -0.1336
   37DSPC   C5B  518   2.005   1.155   2.173 -0.3436 -0.3410  0.0525
   38DSPC   NC3  519   0.146   1.133   1.048 -0.3903  0.3457  0.1792
   38DSPC   PO4  520  -0.053   0.829   0.942  0.4944 -0.1000 -0.0047
   38DSPC   GL1  521   0.224   0.487   0.870 -0.1477  0.0994 -0.1939
   38DSPC   GL2  522   0.449   0.756   0.824  0.2222  0.3082 -0.2396
   38DSPC   C1A  523   0.442   0.275   0.573  0.1526  0.0336 -0.0085
   38DSPC   C2A  524   0.877   0.099   0.334  0.2055  0.4182  0.0486
   38DSPC   C3A  525   1.338   0.244   0.236 -0.0014 -0.2319  0.1500
   38DSPC   C4A  526   1.572   0.387   0.515 -0.0592 -0.2199 -0.2366
   38DSPC   C5A  527   1.851   0.711   0.615  0.0451 -0.1328  0.3102
   38DSPC   C1B  528   0.852   0.893   0.627 -0.0204  0.1483 -0.0419
   38DSPC   C2B  529   1.299   1.014   0.534  0.0952  0.0038 -0.0481
   38DSPC   C3B  530   1.544   0.768   0.180 -0.1997  0.0062 -0.0228
   38DSPC   C4B  531   1.765   0.474   0.001 -0.2317  0.4060 -0.2203
   38DSPC   C5B  532   2.153   0.349  -0.338 -0.0374 -0.1713 -0.0582
   39DSPC   NC3  533   4.868   0.054   0.123 -0.2773 -0.0178 -0.0537
   39DSPC   PO4  534   4.724   0.122   0.556 -0.0998  0.0157  0.1789
   39DSPC   GL1  535   4.188   0.217   0.684 -0.1212 -0.0894 -0.0970
   39DSPC   GL2  536   4.071   0.493   0.874  0.1787 -0.0599 -0.0797
   39DSPC   C1A  537   3.747   0.291   0.473  0.1310 -0.4649 -0.1867
   39DSPC   C2A  538   3.311   0.266   0.452 -0.2591 -0.3432 -0.0199
   39DSPC   C3A  539   2.986   0.007   0.500  0.0803 -0.0706  0.0750
   39DSPC   C4A  540   2.616  -0.119   0.687 -0.2278  0.0172  0.2096
   39DSPC   C5A  541   2.549   0.027   1.090 -0.0095  0.1941 -0.0063
   39DSPC   C1B  542   3.755   0.123   0.963 -0.1216  0.2614  0.2627
   39DSPC   C2B  543   3.803  -0.283   1.238  0.0457  0.0264  0.4115
   39DSPC   C3B  544   3.671  -0.521   1.545 -0.1195 -0.2294 -0.1693
   39DSPC   C4B  545   3.457  -0.680   1.853  0.0820 -0.2777  0.1938
   39DSPC   C5B  546   2.974  -0.517   1.921  0.1780  0.0912  0.2154
   40DSPC   NC3  547   4.902   1.289   2.221 -0.1675 -0.1522  0.1515
   40DSPC   PO4  548   4.961   1.700   2.434  0.1376 -0.0598  0.0941
   40DSPC   GL1  549   4.651   1.749   2.622  0.1674  0.2758  0.0402
   40DSPC   GL2  550   4.739   1.969   2.858 -0.3043  0.0188  0.0073
   40DSPC   C1A  551   4.164   1.506   2.721  0.2737 -0.1571 -0.2170
   40DSPC   C2A  552   3.668   1.535   2.835  0.2159  0.1996 -0.1653
   40DSPC   C3A  553   3.328   1.395   2.643  0.0815  0.0648  0.0044
   40DSPC   C4A  554   2.937   1.465   2.519  0.4093 -0.0468  0.0573
   40DSPC   C5A  555   2.683   1.697   2.153  0.0794 -0.1516 -0.2274
   40DSPC   C1B  556   4.363   1.985   2.995 -0.0939  0.1605  0.0527
   40DSPC   C2B  557   3.966   1.915   3.175 -0.1337  0.0769 -0.2970
   40DSPC   C3B  558   3.569   2.009   3.073  0.0462 -0.2292 -0.2142
   40DSPC   C4B  559   3.185   1.805   2.983 -0.0541  0.2394 -0.0553
   40DSPC   C5B  560   2.875   1.948   2.696  0.2070  0.0257  0.0202
   41DSPC   NC3  561   0.478   3.740   0.927  0.0349  0.0556 -0.3934
   41DSPC   PO4  562   0.358   3.750   0.548  0.3040 -0.0462 -0.2353
   41DSPC   GL1  563   0.761   3.755   0.512 -0.1136  0.3464  0.2106
   41DSPC   GL2  564   0.868   3.861   0.306 -0.0170 -0.1072  0.2751
   41DSPC   C1A  565   1.255   3.725   0.576 -0.1010 -0.1433  0.0607
   41DSPC   C2A  566   1.639   3.671   0.268  0.0024  0.2114  0.2214
   41DSPC   C3A  567   2.052   3.785   0.204 -0.0591 -0.2645 -0.4323
   41DSPC   C4A  568   2.273   4.118  -0.147 -0.0874  0.1986 -0.1567
   41DSPC   C5A  569   2.577   4.334  -0.391 -0.3607 -0.3288 -0.0243
   41DSPC   C1B  570   1.206   3.955   0.142 -0.1231 -0.0992  0.2402
   41DSPC   C2B  571   1.707   4.163   0.053 -0.1163 -0.2922  0.1857
   41DSPC   C3B  572   2.070   4.412   0.162  0.1821 -0.0242 -0.0878
   41DSPC   C4B  573   2.473   4.536   0.047  0.0129 -0.2936 -0.2358
   41DSPC   C5B  574   2.881   4.393  -0.024  0.2921 -0.0921 -0.1624
   42DSPC   NC3  575   7.549   5.247   4.975  0.4381  0.2396  0.1225
   42DSPC   PO4  576   7.644   5.600   4.685  0.0194 -0.0732  0.1341
   42DSPC   GL1  577   8.080   5.615   4.598  0.4206  0.0037  0.1557
   42DSPC   GL2  578   8.383   5.427   4.870  0.0064 -0.3650  0.2121
   42DSPC   C1A  579   8.361   5.282   4.323  0.1065 -0.1049 -0.1873
   42DSPC   C2A  580   8.434   5.015   4.079 -0.1267  0.1972 -0.2046
   42DSPC   C3A  581   8.844   5.075   3.920  0.0836  0.1830  0.1476
   42DSPC   C4A  582   9.328   4.959   4.135  0.0605 -0.2254 -0.0339
   42DSPC   C5A  583   9.648   4.858   4.399  0.1260  0.2313 -0.0210
   42DSPC   C1B  584   8.645   5.637   4.490  0.2258 -0.0869  0.0080
   42DSPC   C2B  585   9.129   5.819   4.484  0.2250  0.1202  0.2369
   42DSPC   C3B  586   9.433   5.932   4.250 -0.0372  0.1431  0.0023
   42DSPC   C4B  587   9.737   5.672   3.996  0.1195  0.0936  0.1898
   42DSPC   C5B  588  10.075   5.512   3.993 -0.4026 -0.0847  0.0619
   43DSPC   NC3  589   5.077   1.925   5.236  0.0945  0.0935  0.1034
   43DSPC   PO4  590   4.900   1.516   5.306  0.0730 -0.2951  0.3054
   43DSPC   GL1  591   4.556   1.740   5.232  0.1695  0.0380  0.0601
   43DSPC   GL2  592   4.269   1.560   5.448 -0.4929  0.1597 -0.0505
   43DSPC   C1A  593   4.030   1.857   5.093 -0.2305  0.1315  0.2486
   43DSPC   C2A  594   3.603   2.108   4.938 -0.1731 -0.2984  0.2427
   43DSPC   C3A  595   3.241   2.272   5.149  0.3635  0.3560  0.0369
   43DSPC   C4A  596   2.934   2.374   5.280  0.0140 -0.3838 -0.0450
   43DSPC   C5A  597   2.596   2.206   4.952  0.2150  0.0367  0.0917
   43DSPC   C1B  598   3.821   1.176   5.505  0.3036  0.1327 -0.1806
   43DSPC   C2B  599   3.632   0.712   5.596 -0.1197  0.0934  0.1848
   43DSPC   C3B  600   3.540   0.353   5.355 -0.0470 -0.3534  0.2649
   43DSPC   C4B  601   3.041   0.123   5.223  0.1619 -0.1900 -0.0998
   43DSPC   C5B  602   2.654   0.259   5.081  0.2607 -0.1148 -0.0707
   44DSPC   NC3  603   0.685   6.492   2.044 -0.2451  0.1303  0.1504
   44DSPC   PO4  604   0.373   6.675   2.119  0.0322 -0.0309 -0.0014
   44DSPC   GL1  605   0.694   6.954   2.024  0.3488 -0.1980 -0.0798
   44DSPC   GL2  606   0.875   7.234   2.265 -0.1805 -0.0939 -0.0889
   44DSPC   C1A  607   1.038   7.065   1.789  0.1589 -0.1525 -0.1948
   44DSPC   C2A  608   1.443   6.887   1.710  0.2674  0.1271  0.0940
   44DSPC   C3A  609   1.794   6.742   1.539  0.0947 -0.0475  0.4443
   44DSPC   C4A  610   2.079   6.638   1.293 -0.4096  0.0461 -0.1001
   44DSPC   C5A  611   2.554   6.693   1.132 -0.2214 -0.0266 -0.1292
   44DSPC   C1B  612   1.324   7.339   2.115  0.1050 -0.0883  0.0918
   44DSPC   C2B  613   1.748   7.004   2.050 -0.0250  0.2003  0.1405
   44DSPC   C3B  614   1.989   6.633   2.026 -0.0861 -0.0440  0.2639
   44DSPC   C4B  615   2.343   6.514   2.104  0.1953 -0.1573 -0.3980
   44DSPC   C5B  616   2.778   6.471   2.334 -0.3880 -0.0142 -0.1601
   45DSPC   NC3  617   0.143   4.256   1.492 -0.1322  0.1815 -0.3305
   45DSPC   PO4  618   0.466   4.003   1.334  0.0918  0.0840 -0.0026
   45DSPC   GL1  619   0.859   4.014   1.325  0.6717 -0.1605  0.0132
   45DSPC   GL2  620   0.946   3.838   0.936 -0.0148 -0.2338 -0.2546
   45DSPC   C1A  621   1.201   4.112   1.502 -0.1530 -0.1436 -0.1143
   45DSPC   C2A  622   1.633   4.197   1.612 -0.3533 -0.2601  0.1203
   45DSPC   C3A  623   2.030   4.288   1.631  0.2722  0.0030 -0.1481
   45DSPC   C4A  624   2.265   4.529   1.712  0.0274  0.2022  0.0987
   45DSPC   C5A  625   2.400   4.570   2.070 -0.4256 -0.1197  0.0295
   45DSPC   C1B  626   1.418   3.940   1.104  0.1633  0.2693 -0.1351
   45DSPC   C2B  627   1.775   3.867   1.238 -0.2062 -0.1277  0.1064
   45DSPC   C3B  628   2.230   3.876   1.215  0.1028 -0.1571  0.0245
   45DSPC   C4B  629   2.563   3.541   1.158  0.0176  0.0988  0.0716
   45DSPC   C5B  630   2.700   3.325   0.846  0.3586  0.1290  0.0584
   46DSPC   NC3  631   4.456   6.899   0.487  0.1428 -0.1209 -0.1027
   46DSPC   PO4  632   4.763   6.757   0.345 -0.0395  0.2447  0.1933
   46DSPC   GL1  633   4.545   6.424   0.463  0.3711  0.3764  0.3215
   46DSPC   GL2  634   4.634   6.360   0.844 -0.2489  0.1763 -0.0191
   46DSPC   C1A  635   4.162   6.110   0.359  0.0112  0.0897 -0.2514
   46DSPC   C2A  636   3.833   5.845   0.161  0.1724 -0.0883  0.1812
   46DSPC   C3A  637   3.434   5.945  -0.144 -0.0087 -0.1939 -0.1011
   46DSPC   C4A  638   3.000   5.910  -0.041 -0.3934 -0.0349  0.0881
   46DSPC   C5A  639   2.487   5.850   0.056  0.3339 -0.0226 -0.0591
   46DSPC   C1B  640   4.394   6.062   0.887  0.1551  0.5230  0.2007
   46DSPC   C2B  641   4.016   5.982   0.881 -0.3146 -0.1409 -0.1100
   46DSPC   C3B  642   3.663   5.866   0.660  0.2826 -0.0497  0.0239
   46DSPC   C4B  643   3.396   5.929   0.380  0.3083 -0.1644  0.2784
   46DSPC   C5B  644   2.949   5.960   0.470  0.1712  0.2094  0.0846
   47DSPC   NC3  645   0.520   3.668   3.401 -0.0619 -0.1383  0.0835
   47DSPC   PO4  646   0.670   4.155   3.538  0.1169 -0.1727 -0.1977
   47DSPC   GL1  647   0.955   3.794   3.484 -0.0927  0.0462  0.2806
   47DSPC   GL2  648   0.907   3.551   3.734 -0.0408 -0.3696 -0.0069
   47DSPC   C1A  649   1.320   3.570   3.251  0.2056  0.2271 -0.2769
   47DSPC   C2A  650   1.682   3.314   3.166  0.1226 -0.0621  0.0223
   47DSPC   C3A  651   1.853   2.952   2.911 -0.1770 -0.2092  0.0567
   47DSPC   C4A  652   2.182   2.919   2.664 -0.1288 -0.1008 -0.2269
   47DSPC   C5A  653   2.459   3.134   2.433  0.2706  0.2622 -0.3204
   47DSPC   C1B  654   1.093   3.843   3.978  0.1862  0.0557  0.1115
   47DSPC   C2B  655   1.568   3.841   3.954  0.0388 -0.0778  0.0011
   47DSPC   C3B  656   2.036   3.712   3.965 -0.1132  0.0284 -0.2204
   47DSPC   C4B  657   2.517   3.757   4.122  0.0380  0.1410  0.2577
   47DSPC   C5B  658   2.872   3.747   3.842 -0.0906 -0.0942 -0.0236
   48DSPC   NC3  659   0.505   3.558   5.047 -0.1398  0.1174  0.1256
   48DSPC   PO4  660   0.415   3.187   4.827  0.2464  0.0045  0.0263
   48DSPC   GL1  661   0.798   3.136   4.883 -0.1806 -0.1375 -0.2271
   48DSPC   GL2  662   0.894   2.807   4.836  0.1488 -0.2840 -0.2060
   48DSPC   C1A  663   1.241   3.157   4.804  0.0287 -0.1339 -0.1613
   48DSPC   C2A  664   1.663   2.914   4.939  0.0836  0.3397  0.1091
   48DSPC   C3A  665   2.086   2.897   4.983 -0.1468 -0.0113  0.2923
   48DSPC   C4A  666   2.439   3.001   5.255 -0.2471 -0.1186  0.2040
   48DSPC   C5A  667   2.674   2.750   5.585  0.1846  0.0497  0.0452
   48DSPC   C1B  668   1.270   2.575   4.825 -0.1362  0.4005  0.0128
   48DSPC   C2B  669   1.726   2.427   4.966 -0.0682 -0.0205 -0.3101
   48DSPC   C3B  670   2.030   2.214   4.915 -0.1972 -0.4556  0.4130
   48DSPC   C4B  671   2.194   1.946   5.194 -0.0496 -0.3029 -0.2215
   48DSPC   C5B  672   2.472   1.777   5.391 -0.1898  0.3544 -0.1270
   49DSPC   NC3  673   4.934   3.721   3.284  0.1384 -0.3788 -0.0389
   49DSPC   PO4  674   4.647   3.343   3.092  0.0895  0.0254  0.1140
   49DSPC   GL1  675   4.237   3.108   3.162 -0.0420 -0.0846 -0.1526
   49DSPC   GL2  676   4.116   3.408   3.006  0.0779  0.5442 -0.0035
   49DSPC   C1A  677   3.843   2.874   3.110  0.0585 -0.0162  0.5019
   49DSPC   C2A  678   3.491   2.747   2.978 -0.0520  0.0764  0.4151
   49DSPC   C3A  679   3.149   2.921   3.049  0.1288 -0.0416 -0.1726
   49DSPC   C4A  680   2.868   2.929   3.379 -0.1006  0.1705 -0.0342
   49DSPC   C5A  681   2.873   3.066   3.857  0.1104  0.0940  0.0314
   49DSPC   C1B  682   3.801   3.238   2.744 -0.0071  0.2830  0.0131
   49DSPC   C2B  683   3.374   3.327   2.603  0.0922  0.2258 -0.0261
   49DSPC   C3B  684   2.878   3.184   2.696 -0.5327 -0.0402  0.0359
   49DSPC   C4B  685   2.661   2.813   2.808  0.1753 -0.0232 -0.1327
   49DSPC   C5B  686   2.842   2.492   3.013  0.2742 -0.0850  0.0516
   50DSPC   NC3  687   0.383   1.655   3.474 -0.0203  0.0445 -0.0279
   50DSPC   PO4  688   0.772   1.420   3.673  0.1652  0.0456  0.0204
   50DSPC   GL1  689   1.059   1.211   3.591 -0.0659 -0.1500 -0.1816
   50DSPC   GL2  690   1.248   1.421   3.737 -0.0082  0.1113 -0.0776
   50DSPC   C1A  691   1.490   0.974   3.593 -0.0631  0.1735  0.1674
   50DSPC   C2A  692   1.688   0.671   3.732  0.1197  0.0361 -0.1446
   50DSPC   C3A  693   1.955   0.463   4.087  0.1899 -0.0287 -0.1885
   50DSPC   C4A  694   2.261   0.139   4.181 -0.0565 -0.3270  0.0682
   50DSPC   C5A  695   2.255  -0.223   4.453 -0.3802 -0.3181 -0.1337
   50DSPC   C1B  696   1.532   1.474   3.986  0.0922 -0.0382 -0.0745
   50DSPC   C2B  697   1.955   1.410   4.064  0.3880 -0.1417  0.1378
   50DSPC   C3B  698   2.325   1.393   4.028 -0.2271  0.1261  0.1302
   50DSPC   C4B  699   2.687   1.596   3.927  0.0941 -0.2296 -0.1618
   50DSPC   C5B  700   2.979   2.067   3.892 -0.2186 -0.1122 -0.0260
   51DSPC   NC3  701   7.012   1.797   0.399  0.1044  0.0646 -0.1156
   51DSPC   PO4  702   7.303   1.518   0.284  0.1182 -0.1594  0.0496
   51DSPC   GL1  703   7.834   1.322   0.272  0.5404  0.1651 -0.0494
   51DSPC   GL2  704   8.138   1.612   0.101 -0.1484 -0.0239  0.1674
   51DSPC   C1A  705   8.243   1.070   0.167  0.1529 -0.1017 -0.0884
   51DSPC   C2A  706   8.730   1.122   0.114  0.1729  0.3255 -0.0097
   51DSPC   C3A  707   9.000   1.123  -0.181 -0.3263 -0.0508 -0.3046
   51DSPC   C4A  708   9.299   1.377  -0.308 -0.1189  0.1261 -0.5483
   51DSPC   C5A  709   9.727   1.211  -0.419  0.1208 -0.2463 -0.0121
   51DSPC   C1B  710   8.530   1.520  -0.052 -0.3080  0.2258  0.1692
   51DSPC   C2B  711   8.915   1.644  -0.214 -0.0169 -0.1279  0.1156
   51DSPC   C3B  712   9.316   1.818  -0.042  0.3329 -0.0852  0.0679
   51DSPC   C4B  713   9.648   1.721   0.253 -0.0212  0.0590  0.3349
   51DSPC   C5B  714  10.145   1.498   0.366  0.1371  0.0828 -0.1172
   52DSPC   NC3  715   0.689   0.133   2.909  0.2033  0.0588  0.2141
   52DSPC   PO4  716   0.548   0.519   2.860 -0.0701  0.1748 -0.2130
   52DSPC   GL1  717   0.944   0.538   2.714 -0.0489 -0.2086  0.1830
   52DSPC   GL2  718   1.045   0.290   2.432  0.0639  0.0374  0.0869
   52DSPC   C1A  719   1.243   0.792   2.483 -0.1987  0.1593 -0.3097
   52DSPC   C2A  720   1.597   0.972   2.458  0.1547  0.0216  0.0452
   52DSPC   C3A  721   1.999   1.097   2.721 -0.1365  0.1188 -0.3726
   52DSPC   C4A  722   2.269   1.260   3.060 -0.0829 -0.0899 -0.3567
   52DSPC   C5A  723   2.456   1.311   3.503  0.1832 -0.0442  0.3855
   52DSPC   C1B  724   1.372   0.313   2.777 -0.0574 -0.1990 -0.0482
   52DSPC   C2B  725   1.732   0.530   2.553 -0.1880  0.2463 -0.1401
   52DSPC   C3B  726   2.061   0.302   2.369 -0.1206 -0.0759  0.0276
   52DSPC   C4B  727   2.263   0.313   1.994 -0.3830 -0.0945  0.2438
   52DSPC   C5B  728   2.370  -0.050   1.644  0.2847  0.6262 -0.0694
   53DSPC   NC3  729   5.151   0.104   2.480 -0.2834 -0.0034 -0.2689
   53DSPC   PO4  730   5.051  -0.327   2.380 -0.3050  0.2087 -0.0385
   53DSPC   GL1  731   4.635  -0.107   2.209 -0.3280  0.1307 -0.0752
   53DSPC   GL2  732   4.738   0.297   2.288 -0.0051  0.1997 -0.2484
   53DSPC   C1A  733   4.222  -0.192   2.076  0.1995 -0.4417 -0.1128
   53DSPC   C2A  734   3.723  -0.276   2.022 -0.0018 -0.1879  0.0206
   53DSPC   C3A  735   3.331  -0.214   1.674 -0.0532 -0.1483 -0.1148
   53DSPC   C4A  736   3.196  -0.535   1.439  0.2680  0.0662  0.3808
   53DSPC   C5A  737   2.961  -0.901   1.467  0.0346 -0.1689  0.1634
   53DSPC   C1B  738   4.486   0.280   2.049  0.1321 -0.1499  0.2244
   53DSPC   C2B  739   4.018   0.402   1.892  0.1455  0.1640 -0.0503
   53DSPC   C3B  740   3.576   0.607   1.939 -0.0713 -0.3679 -0.4893
   53DSPC   C4B  741   3.199   0.590   1.769  0.1888  0.2526  0.1456
   53DSPC   C5B  742   2.816   0.351   1.833 -0.5464 -0.1698 -0.2216
   54DSPC   NC3  743   5.016   5.431   3.033 -0.0773 -0.1730  0.1829
   54DSPC   PO4  744   5.019   5.598   3.438 -0.1293 -0.0267 -0.3780
   54DSPC   GL1  745   4.647   5.438   3.457  0.2824 -0.4660  0.2333
   54DSPC   GL2  746   4.483   5.385   3.099 -0.2643  0.1362 -0.2634
   54DSPC   C1A  747   4.224   5.564   3.531  0.0513 -0.2581 -0.0490
   54DSPC   C2A  748   3.815   5.510   3.813  0.0352 -0.0608 -0.0475
   54DSPC   C3A  749   3.465   5.384   3.825 -0.0185  0.2252 -0.0837
   54DSPC   C4A  750   3.220   5.160   4.206  0.3483 -0.3308 -0.0193
   54DSPC   C5A  751   2.764   5.150   4.258 -0.0077 -0.2601 -0.2091
   54DSPC   C1B  752   4.050   5.591   3.102 -0.0372 -0.1034 -0.1445
   54DSPC   C2B  753   3.600   5.613   3.284 -0.0420 -0.1352 -0.1986
   54DSPC   C3B  754   3.301   5.238   3.258  0.0201  0.0831 -0.1416
   54DSPC   C4B  755   2.967   5.006   3.224 -0.0806  0.0915  0.0327
   54DSPC   C5B  756   2.668   4.649   3.487  0.1776  0.1610  0.0041
   55DSPC   NC3  757   4.538   4.962   3.451  0.0953 -0.4657 -0.0487
   55DSPC   PO4  758   4.811   4.729   3.708 -0.3134 -0.1054  0.0082
   55DSPC   GL1  759   4.483   4.861   3.981  0.3134  0.3341  0.4276
   55DSPC   GL2  760   4.466   5.150   4.168  0.3369  0.0279 -0.0936
   55DSPC   C1A  761   4.145   4.720   4.193 -0.2425  0.0020 -0.0728
   55DSPC   C2A  762   4.070   4.393   4.309  0.2324  0.2378 -0.3462
   55DSPC   C3A  763   4.188   4.025   4.422  0.2980  0.0461 -0.0715
   55DSPC   C4A  764   4.128   3.645   4.186  0.0410  0.1313  0.5084
   55DSPC   C5A  765   4.033   3.282   4.284 -0.0034  0.1798  0.2909
   55DSPC   C1B  766   4.154   5.162   3.825 -0.1460  0.2133  0.1973
   55DSPC   C2B  767   3.854   5.200   3.432  0.0033  0.0956  0.1074
   55DSPC   C3B  768   3.664   4.916   3.230  0.1579  0.0023  0.2674
   55DSPC   C4B  769   3.319   4.651   3.310 -0.1935 -0.2077  0.3281
   55DSPC   C5B  770   3.088   4.401   3.156  0.0697  0.2153  0.1641
   56DSPC   NC3  771   0.138   4.455   3.592 -0.1914  0.0525  0.1819
   56DSPC   PO4  772   0.398   4.319   3.955  0.2997 -0.3542 -0.3642
   56DSPC   GL1  773   0.778   4.396   4.006 -0.2075 -0.3678  0.3894
   56DSPC   GL2  774   1.140   4.359   3.711  0.1958 -0.0118 -0.3257
   56DSPC   C1A  775   1.130   4.241   4.313  0.1435  0.3230 -0.2071
   56DSPC   C2A  776   1.474   4.012   4.461 -0.0665  0.2570 -0.1910
   56DSPC   C3A  777   1.882   3.853   4.465  0.0708 -0.1810 -0.1426
   56DSPC   C4A  778   2.238   3.513   4.499  0.1071  0.0284 -0.3025
   56DSPC   C5A  779   2.516   3.255   4.755  0.1882 -0.2102  0.0032
   56DSPC   C1B  780   1.473   4.657   3.693 -0.1449  0.1121  0.1451
   56DSPC   C2B  781   1.979   4.600   3.632 -0.1022  0.0290  0.3069
   56DSPC   C3B  782   2.258   4.919   3.467 -0.1974  0.1884  0.1904
   56DSPC   C4B  783   2.482   5.001   3.159 -0.0342  0.3364 -0.0680
   56DSPC   C5B  784   2.599   5.368   2.950 -0.3878 -0.2115 -0.2098
   57DSPC   NC3  785   7.142   0.771   5.313 -0.0226 -0.0545  0.0531
   57DSPC   PO4  786   7.570   0.686   4.977  0.3020  0.1199 -0.5427
   57DSPC   GL1  787   7.892   0.440   4.785  0.0067  0.0170  0.3667
   57DSPC   GL2  788   7.984   0.143   4.975 -0.2868  0.3467 -0.1651
   57DSPC   C1A  789   8.334   0.251   4.582  0.1618 -0.1604  0.0299
   57DSPC   C2A  790   8.631   0.123   4.772 -0.1247  0.2641 -0.2083
   57DSPC   C3A  791   9.024   0.171   4.832 -0.1372  0.1909 -0.2768
   57DSPC   C4A  792   9.317   0.467   4.949 -0.0895  0.0858 -0.0742
   57DSPC   C5A  793   9.429   0.863   5.134 -0.2747 -0.0279 -0.0008
   57DSPC   C1B  794   8.371   0.486   5.094  0.0323  0.3095 -0.1720
   57DSPC   C2B  795   8.411   1.055   5.072 -0.1818 -0.2032 -0.2731
   57DSPC   C3B  796   8.681   1.366   4.818  0.0063  0.1338 -0.0654
   57DSPC   C4B  797   8.958   1.565   4.574  0.0023 -0.0085 -0.2062
   57DSPC   C5B  798   9.386   1.749   4.354 -0.2399 -0.2532 -0.2928
   58DSPC   NC3  799   4.951   3.685   2.158  0.1940 -0.1936 -0.2127
   58DSPC   PO4  800   4.944   3.927   1.902  0.4261 -0.1509 -0.0481
   58DSPC   GL1  801   4.531   3.775   1.900  0.3068 -0.1218 -0.4275
   58DSPC   GL2  802   4.372   3.449   2.035  0.3150 -0.3113 -0.0103
   58DSPC   C1A  803   4.058   3.869   2.035  0.0391  0.3171 -0.0781
   58DSPC   C2A  804   3.812   4.202   1.945 -0.0993  0.0045  0.0134
   58DSPC   C3A  805   3.427   4.081   1.903  0.1083  0.0002  0.2188
   58DSPC   C4A  806   3.129   3.801   1.606 -0.1821 -0.1363 -0.0155
   58DSPC   C5A  807   2.938   3.831   1.256  0.0537  0.1398  0.3250
   58DSPC   C1B  808   3.904   3.280   1.747  0.1388 -0.0656 -0.1516
   58DSPC   C2B  809   3.542   3.138   2.001  0.1798  0.2142  0.2605
   58DSPC   C3B  810   3.148   2.961   2.280  0.1465 -0.1494 -0.5964
   58DSPC   C4B  811   3.140   2.684   2.611  0.0780  0.0554 -0.2359
   58DSPC   C5B  812   3.307   2.315   2.730  0.0429 -0.3448 -0.0477
   59DSPC   NC3  813   0.178   5.379   3.279  0.0288 -0.2388  0.1645
   59DSPC   PO4  814   0.376   5.759   3.086 -0.0705 -0.0021  0.0615
   59DSPC   GL1  815   0.816   5.627   2.990 -0.3208 -0.0246 -0.0626
   59DSPC   GL2  816   0.963   5.780   2.668  0.0583 -0.1606  0.0699
   59DSPC   C1A  817   1.198   5.837   3.150 -0.0172  0.1061  0.2860
   59DSPC   C2A  818   1.574   6.072   3.245  0.1153 -0.1428 -0.0189
   59DSPC   C3A  819   1.982   5.939   3.278  0.0777  0.3551  0.0654
   59DSPC   C4A  820   2.400   6.025   3.123 -0.4037  0.0502  0.0270
   59DSPC   C5A  821   2.847   6.130   3.289  0.0210 -0.0556  0.1799
   59DSPC   C1B  822   1.333   5.587   2.707 -0.0042  0.2532 -0.0889
   59DSPC   C2B  823   1.687   5.330   2.655  0.2074  0.0787  0.1079
   59DSPC   C3B  824   1.836   5.150   2.291  0.1822 -0.1323  0.2944
   59DSPC   C4B  825   1.862   4.709   2.247 -0.0061 -0.3620  0.0403
   59DSPC   C5B  826   1.623   4.307   2.266 -0.2104 -0.1076  0.0905
   60DSPC   NC3  827   7.345   5.400   1.049  0.1904 -0.0320 -0.1161
   60DSPC   PO4  828   7.639   5.162   0.799  0.1308 -0.0140  0.1873
   60DSPC   GL1  829   8.082   5.191   0.743  0.2983  0.2190  0.3244
   60DSPC   GL2  830   8.339   5.296   0.451  0.3301 -0.2730 -0.2573
   60DSPC   C1A  831   8.463   5.172   0.977 -0.2018 -0.0583 -0.2128
   60DSPC   C2A  832   8.897   5.095   0.964  0.1462  0.2148 -0.0593
   60DSPC   C3A  833   9.274   4.886   1.089  0.1977  0.0294  0.1648
   60DSPC   C4A  834   9.219   4.714   1.447 -0.1405 -0.1667 -0.0379
   60DSPC   C5A  835   8.774   4.597   1.521  0.1780 -0.0679 -0.4078
   60DSPC   C1B  836   8.765   5.287   0.448 -0.1448 -0.0257 -0.0224
   60DSPC   C2B  837   9.188   5.149   0.498  0.1197  0.0521  0.0990
   60DSPC   C3B  838   9.618   5.240   0.516  0.1292 -0.0109  0.2614
   60DSPC   C4B  839  10.001   5.350   0.643 -0.2091 -0.0931 -0.0339
   60DSPC   C5B  840  10.429   5.390   0.696 -0.0023  0.1463 -0.2732
   61DSPC   NC3  841   4.917   4.341   3.479  0.1541  0.0363 -0.0864
   61DSPC   PO4  842   4.828   4.626   3.209 -0.1071  0.1823  0.3731
   61DSPC   GL1  843   4.408   4.623   3.234  0.1710  0.1127 -0.1019
   61DSPC   GL2  844   4.412   4.378   3.456  0.1500  0.0024  0.1798
   61DSPC   C1A  845   3.960   4.522   3.020  0.0653  0.0506  0.1207
   61DSPC   C2A  846   3.552   4.345   2.935  0.2084  0.2726  0.1875
   61DSPC   C3A  847   3.362   3.966   2.855  0.1450 -0.0775 -0.0736
   61DSPC   C4A  848   2.943   3.829   2.909 -0.3358 -0.2753 -0.5159
   61DSPC   C5A  849   2.730   3.730   3.258 -0.0820 -0.0102 -0.1048
   61DSPC   C1B  850   4.137   4.659   3.688 -0.1546  0.2021 -0.1060
   61DSPC   C2B  851   3.671   4.710   3.674  0.2344 -0.2253  0.2452
   61DSPC   C3B  852   3.174   4.956   3.670 -0.1158  0.0317 -0.2148
   61DSPC   C4B  853   2.822   5.166   3.761 -0.4398  0.1384  0.0806
   61DSPC   C5B  854   2.970   5.508   3.951 -0.3491 -0.0501 -0.0306
   62DSPC   NC3  855   4.688   5.168   0.108  0.1257  0.2000  0.0378
   62DSPC   PO4  856   4.872   4.762  -0.190 -0.0891 -0.1613  0.0447
   62DSPC   GL1  857   4.538   4.565  -0.339 -0.1159  0.0339 -0.1967
   62DSPC   GL2  858   4.305   4.757  -0.207 -0.2211  0.1256 -0.1483
   62DSPC   C1A  859   4.271   4.465  -0.634 -0.0254  0.1800 -0.0213
   62DSPC   C2A  860   3.834   4.832  -0.823 -0.2797  0.1290 -0.0037
   62DSPC   C3A  861   3.416   4.959  -0.802  0.1853 -0.0887 -0.0935
   62DSPC   C4A  862   3.153   4.851  -0.458 -0.3168 -0.3268 -0.1540
   62DSPC   C5A  863   2.901   4.919  -0.081  0.1835  0.3182 -0.1975
   62DSPC   C1B  864   3.937   4.946  -0.271 -0.1097 -0.2073 -0.3772
   62DSPC   C2B  865   3.539   5.137  -0.315 -0.1334 -0.0400  0.2271
   62DSPC   C3B  866   3.127   5.298  -0.287 -0.2130 -0.2124 -0.0132
   62DSPC   C4B  867   2.828   5.645  -0.419 -0.0420 -0.4111  0.2584
   62DSPC   C5B  868   2.406   5.813  -0.483  0.0566  0.0028 -0.0234
   63DSPC   NC3  869   4.944   6.415   4.890 -0.1101 -0.3212 -0.1185
   63DSPC   PO4  870   4.621   6.137   4.838  0.1753  0.0821 -0.1278
   63DSPC   GL1  871   4.195   6.208   4.819 -0.2207 -0.3289  0.3411
   63DSPC   GL2  872   4.273   6.433   4.675  0.0650  0.2554  0.2148
   63DSPC   C1A  873   3.745   6.347   4.612 -0.1150 -0.0228  0.0580
   63DSPC   C2A  874   3.381   6.682   4.579  0.1963  0.0095  0.1190
   63DSPC   C3A  875   2.982   6.746   4.339  0.0116  0.0441 -0.0442
   63DSPC   C4A  876   2.706   6.459   4.155  0.1364  0.0718  0.3192
   63DSPC   C5A  877   2.381   6.067   4.153 -0.1064  0.2280  0.1652
   63DSPC   C1B  878   4.090   6.409   4.253 -0.1599 -0.1987  0.2392
   63DSPC   C2B  879   3.686   6.594   4.084 -0.0864  0.0149 -0.0657
   63DSPC   C3B  880   3.327   6.808   3.972  0.1113 -0.2450  0.4372
   63DSPC   C4B  881   2.995   6.958   3.928  0.0526 -0.4486 -0.2402
   63DSPC   C5B  882   2.627   7.051   4.207 -0.0364  0.1319 -0.0597
   64DSPC   NC3  883   7.575   0.116   4.689  0.0071  0.0685 -0.0024
   64DSPC   PO4  884   7.622   0.041   4.237  0.3172 -0.3969  0.2440
   64DSPC   GL1  885   7.989  -0.004   4.154 -0.1931 -0.0315 -0.0321
   64DSPC   GL2  886   7.999   0.102   3.889 -0.0953 -0.3122  0.2099
   64DSPC   C1A  887   8.496  -0.028   4.132 -0.1448 -0.2529 -0.0718
   64DSPC   C2A  888   8.887  -0.145   4.423  0.0971 -0.0768 -0.2049
   64DSPC   C3A  889   9.253  -0.141   4.105  0.0065  0.2064 -0.2821
   64DSPC   C4A  890   9.644  -0.289   3.904 -0.2327 -0.1376 -0.2975
   64DSPC   C5A  891  10.131  -0.277   3.736  0.1744 -0.0060 -0.1214
   64DSPC   C1B  892   8.167  -0.123   3.524  0.0137  0.0779 -0.2676
   64DSPC   C2B  893   8.481  -0.399   3.584  0.0285  0.0489 -0.0505
   64DSPC   C3B  894   8.796  -0.703   3.427  0.0869 -0.1091  0.0815
   64DSPC   C4B  895   9.059  -0.855   3.615 -0.3088 -0.0807  0.0881
   64DSPC   C5B  896   9.271  -0.641   3.875 -0.0308  0.1298 -0.2541
   65DSPC   NC3  897   0.608   0.647   2.396 -0.0390  0.0769  0.1409
   65DSPC   PO4  898   0.332   1.093   2.372  0.1040  0.2379 -0.1214
   65DSPC   GL1  899   0.741   1.123   2.282  0.0779  0.0973 -0.2308
   65DSPC   GL2  900   0.768   1.479   2.431  0.1002  0.2131 -0.0141
   65DSPC   C1A  901   1.102   1.075   1.872  0.1842 -0.0737  0.0130
   65DSPC   C2A  902   1.327   0.905   1.577  0.2448 -0.1521 -0.2197
   65DSPC   C3A  903   1.608   0.736   1.546  0.2033 -0.0483 -0.0340
   65DSPC   C4A  904   1.793   0.413   1.639  0.0105 -0.2246 -0.3091
   65DSPC   C5A  905   1.805   0.039   1.909 -0.4008 -0.2014 -0.0970
   65DSPC   C1B  906   1.290   1.393   2.362 -0.0406 -0.0094  0.0503
   65DSPC   C2B  907   1.556   1.297   2.084 -0.1368  0.0385  0.0641
   65DSPC   C3B  908   1.748   1.151   1.747  0.2024 -0.1102 -0.0672
   65DSPC   C4B  909   2.073   1.056   1.596  0.0014 -0.0718  0.0387
   65DSPC   C5B  910   2.380   0.780   1.724 -0.2272 -0.0277 -0.2241
   66DSPC   NC3  911   4.963   1.860   0.667  0.1751 -0.0004  0.2287
   66DSPC   PO4  912   5.129   1.867   1.105 -0.1594 -0.2590  0.1280
   66DSPC   GL1  913   4.679   1.772   1.262 -0.2399 -0.4010 -0.3585
   66DSPC   GL2  914   4.724   1.827   1.654 -0.2371  0.0895 -0.3384
   66DSPC   C1A  915   4.308   1.461   1.301  0.2182  0.1692  0.2136
   66DSPC   C2A  916   3.917   1.664   1.217  0.1086 -0.0853  0.2171
   66DSPC   C3A  917   3.638   1.678   0.892 -0.0395  0.1391  0.1670
   66DSPC   C4A  918   3.441   1.922   0.650  0.1444 -0.0405 -0.0080
   66DSPC   C5A  919   3.051   2.033   0.792 -0.0226 -0.1533  0.0982
   66DSPC   C1B  920   4.256   1.816   1.641  0.1984 -0.0331  0.1717
   66DSPC   C2B  921   3.854   1.662   1.703  0.0145  0.0094  0.0441
   66DSPC   C3B  922   3.476   1.681   1.592 -0.2039  0.1426  0.0116
   66DSPC   C4B  923   3.154   1.477   1.351 -0.1232 -0.0996 -0.1797
   66DSPC   C5B  924   2.886   1.106   1.142  0.3208  0.2086 -0.1235
   67DSPC   NC3  925   4.954   0.890   3.097  0.0128  0.0258  0.0302
   67DSPC   PO4  926   4.901   0.493   3.219 -0.0260  0.4113 -0.1044
   67DSPC   GL1  927   4.517   0.671   3.229 -0.1222  0.0696  0.1841
   67DSPC   GL2  928   4.370   0.363   3.282 -0.0684  0.1716  0.3364
   67DSPC   C1A  929   4.026   0.714   3.322  0.2635 -0.2009  0.0890
   67DSPC   C2A  930   3.636   0.771   3.337 -0.0011 -0.2713  0.1265
   67DSPC   C3A  931   3.262   0.677   3.575 -0.3861  0.1821 -0.3583
   67DSPC   C4A  932   3.129   0.543   4.043  0.0241 -0.2851 -0.0518
   67DSPC   C5A  933   2.887   0.813   4.245  0.0547 -0.1782 -0.1334
   67DSPC   C1B  934   4.034   0.214   3.530  0.1195  0.2126  0.1772
   67DSPC   C2B  935   3.792  -0.075   3.858 -0.0712  0.1914  0.2839
   67DSPC   C3B  936   3.531  -0.339   4.008 -0.0798  0.3001 -0.1498
   67DSPC   C4B  937   3.261  -0.421   4.362  0.2306  0.0346 -0.0971
   67DSPC   C5B  938   3.182  -0.495   4.786 -0.0441  0.4074 -0.0878
   68DSPC   NC3  939   7.504   4.255   2.820  0.0504 -0.1207 -0.0676
   68DSPC   PO4  940   7.904   4.160   2.689 -0.2137 -0.1487  0.0078
   68DSPC   GL1  941   8.195   4.388   2.523  0.3169 -0.1299 -0.3090
   68DSPC   GL2  942   8.290   4.376   2.181  0.1546  0.2273  0.2678
   68DSPC   C1A  943   8.684   4.312   2.489 -0.1405  0.3180 -0.1140
   68DSPC   C2A  944   8.899   4.375   2.780  0.1071  0.2077  0.1829
   68DSPC   C3A  945   9.352   4.307   2.779 -0.5548  0.1520 -0.2570
   68DSPC   C4A  946   9.781   4.424   2.719  0.3683 -0.0553 -0.2469
   68DSPC   C5A  947   9.991   4.810   2.474 -0.2274  0.0116 -0.0889
   68DSPC   C1B  948   8.335   4.764   1.872 -0.5039 -0.0152 -0.0609
   68DSPC   C2B  949   8.590   5.103   1.946  0.1748 -0.2862  0.2143
   68DSPC   C3B  950   8.806   5.581   1.760 -0.0569  0.1310 -0.1488
   68DSPC   C4B  951   9.032   5.792   1.395  0.0506 -0.0185  0.1110
   68DSPC   C5B  952   9.367   6.154   1.329 -0.0755 -0.4006 -0.1083
   69DSPC   NC3  953   4.884   6.531   2.532 -0.1981  0.1050  0.0830
   69DSPC   PO4  954   4.991   6.783   2.095 -0.1251  0.2103  0.3672
   69DSPC   GL1  955   4.598   6.636   2.220  0.4147 -0.0578 -0.1177
   69DSPC   GL2  956   4.642   6.313   2.176  0.0325  0.0469 -0.0622
   69DSPC   C1A  957   4.289   6.872   2.243  0.0923  0.1596 -0.3090
   69DSPC   C2A  958   3.949   7.130   2.408 -0.2641  0.2968 -0.4065
   69DSPC   C3A  959   3.719   7.326   2.718 -0.1634 -0.1126 -0.1668
   69DSPC   C4A  960   3.332   7.544   2.849  0.0734  0.1824  0.1155
   69DSPC   C5A  961   3.133   7.957   2.767  0.2883  0.2723 -0.0135
   69DSPC   C1B  962   4.207   6.349   2.248 -0.0200  0.1448 -0.2723
   69DSPC   C2B  963   3.875   6.155   2.235  0.4273 -0.0454  0.0436
   69DSPC   C3B  964   3.665   5.844   2.290  0.0140 -0.0962 -0.2427
   69DSPC   C4B  965   3.601   5.420   2.333 -0.2195 -0.0310  0.3441
   69DSPC   C5B  966   3.483   4.970   2.273 -0.0394  0.0174 -0.2710
   70DSPC   NC3  967   5.103   4.404   1.748  0.3520 -0.0344  0.1915
   70DSPC   PO4  968   5.217   4.423   2.238 -0.1863  0.3931 -0.0726
   70DSPC   GL1  969   4.813   4.458   2.097 -0.2052 -0.1536  0.2087
   70DSPC   GL2  970   4.626   4.310   1.706  0.0104 -0.1329 -0.0176
   70DSPC   C1A  971   4.390   4.603   2.131 -0.2722  0.2857  0.1991
   70DSPC   C2A  972   3.985   4.731   1.932  0.3712  0.0973  0.0810
   70DSPC   C3A  973   3.577   4.686   1.778 -0.0641  0.0743 -0.1097
   70DSPC   C4A  974   3.124   4.888   1.732  0.2106  0.0481 -0.3317
   70DSPC   C5A  975   2.687   4.741   1.711 -0.2824 -0.1025 -0.0081
   70DSPC   C1B  976   4.223   4.354   1.595  0.1565  0.1853  0.0865
   70DSPC   C2B  977   3.780   4.378   1.415 -0.1334  0.0449  0.0353
   70DSPC   C3B  978   3.304   4.225   1.424  0.3266  0.1511 -0.0386
   70DSPC   C4B  979   2.978   4.308   1.814  0.0604 -0.2329 -0.1990
   70DSPC   C5B  980   2.813   3.966   2.091  0.1836  0.0488  0.1267
   71DSPC   NC3  981   4.635   1.457   4.438  0.1410 -0.0529 -0.2066
   71DSPC   PO4  982   4.893   1.702   4.838  0.0767 -0.1445 -0.0770
   71DSPC   GL1  983   4.484   1.866   4.748  0.3650 -0.0979  0.2400
   71DSPC   GL2  984   4.266   1.719   4.689  0.0072  0.2062 -0.2468
   71DSPC   C1A  985   4.258   2.237   4.859  0.2748  0.0011 -0.2658
   71DSPC   C2A  986   3.985   2.653   4.680  0.0976  0.0185 -0.0931
   71DSPC   C3A  987   3.757   2.758   4.428  0.2844  0.0801  0.0617
   71DSPC   C4A  988   3.254   2.836   4.275  0.1309  0.1996 -0.0485
   71DSPC   C5A  989   2.833   2.892   4.370 -0.0550  0.1812  0.1487
   71DSPC   C1B  990   3.891   1.482   4.551 -0.2891 -0.2537  0.0945
   71DSPC   C2B  991   3.468   1.627   4.705 -0.1229  0.1779  0.3436
   71DSPC   C3B  992   3.159   1.974   4.696  0.1856 -0.3366  0.0990
   71DSPC   C4B  993   3.041   2.483   4.816  0.0824  0.0462  0.0849
   71DSPC   C5B  994   3.186   2.897   4.821  0.1337 -0.3611 -0.6168
   72DSPC   NC3  995   4.560   0.568   0.585 -0.2830  0.3468 -0.2691
   72DSPC   PO4  996   4.789   0.567   0.204 -0.2617 -0.2517 -0.1855
   72DSPC   GL1  997   4.365   0.356   0.145  0.5281 -0.1536 -0.5323
   72DSPC   GL2  998   4.091   0.282   0.061 -0.2347 -0.0201  0.0379
   72DSPC   C1A  999   4.101   0.629   0.405 -0.1132  0.1679  0.0923
   72DSPC   C2A 1000   3.827   0.943   0.549 -0.1000 -0.1092 -0.0786
   72DSPC   C3A 1001   3.398   1.004   0.673 -0.2215  0.1438  0.0723
   72DSPC   C4A 1002   3.074   0.792   0.804 -0.2076  0.0197 -0.0837
   72DSPC   C5A 1003   2.650   0.593   0.682  0.1438 -0.0437 -0.0578
   72DSPC   C1B 1004   3.999   0.178  -0.469 -0.2058  0.0278  0.1259
   72DSPC   C2B 1005   3.510   0.266  -0.617  0.1617 -0.0180  0.4295
   72DSPC   C3B 1006   3.094   0.388  -0.738 -0.0189  0.0416 -0.1410
   72DSPC   C4B 1007   2.871   0.787  -0.756  0.1842 -0.0714  0.0197
   72DSPC   C5B 1008   2.634   1.158  -0.512 -0.1393 -0.1590  0.0518
   73DSPC   NC3 1009   4.853   6.338   3.134 -0.3034  0.0732 -0.2296
   73DSPC   PO4 1010   4.870   6.094   2.718  0.1209  0.0616 -0.1449
   73DSPC   GL1 1011   4.468   6.059   2.523  0.0126 -0.0828  0.3090
   73DSPC   GL2 1012   4.271   5.878   2.313 -0.0448  0.1176 -0.2149
   73DSPC   C1A 1013   4.002   5.940   2.695 -0.1087 -0.4133 -0.1668
   73DSPC   C2A 1014   3.647   5.795   2.790 -0.2763 -0.0503  0.0232
   73DSPC   C3A 1015   3.247   5.786   2.538  0.0528 -0.1148 -0.2452
   73DSPC   C4A 1016   2.875   5.953   2.426  0.1254  0.1037  0.3297
   73DSPC   C5A 1017   2.427   5.876   2.494  0.0820  0.0512  0.2178
   73DSPC   C1B 1018   4.014   5.601   2.039  0.2115 -0.1123 -0.1892
   73DSPC   C2B 1019   3.735   5.256   1.854 -0.0025  0.2194 -0.2613
   73DSPC   C3B 1020   3.455   5.222   1.595 -0.1714  0.0579 -0.0611
   73DSPC   C4B 1021   3.032   5.382   1.583 -0.0417  0.0326 -0.2012
   73DSPC   C5B 1022   2.609   5.268   1.648  0.2391 -0.0803 -0.0077
   74DSPC   NC3 1023   0.071   7.218   5.369  0.0539  0.0430  0.1033
   74DSPC   PO4 1024   0.095   7.338   4.938  0.0575 -0.1039  0.0838
   74DSPC   GL1 1025   0.478   7.152   5.166 -0.0366 -0.0282  0.4917
   74DSPC   GL2 1026   0.541   7.084   5.480  0.2339 -0.1687  0.0991
   74DSPC   C1A 1027   0.827   7.275   4.813 -0.3153  0.0988  0.1681
   74DSPC   C2A 1028   1.368   7.270   4.894  0.3177 -0.1524  0.0448
   74DSPC   C3A 1029   1.691   7.396   4.772  0.3145 -0.3730 -0.0961
   74DSPC   C4A 1030   1.805   7.771   4.494  0.1991 -0.2010 -0.1231
   74DSPC   C5A 1031   2.216   7.957   4.653 -0.0775 -0.0015  0.1582
   74DSPC   C1B 1032   0.730   7.203   5.843  0.4279 -0.3438  0.1837
   74DSPC   C2B 1033   1.181   7.289   5.781  0.0849 -0.1347  0.2354
   74DSPC   C3B 1034   1.592   7.436   5.701 -0.2377 -0.0258 -0.2146
   74DSPC   C4B 1035   1.979   7.776   5.739  0.2309  0.2806  0.2215
   74DSPC   C5B 1036   2.308   8.027   5.796  0.1423 -0.2664  0.1788
   75DSPC   NC3 1037   5.040   1.097   1.263 -0.0967 -0.1818  0.1356
   75DSPC   PO4 1038   4.979   1.431   1.361 -0.3637  0.0027  0.1971
   75DSPC   GL1 1039   4.787   1.325   1.716  0.0967  0.1379  0.3240
   75DSPC   GL2 1040   4.853   0.988   1.756  0.0907 -0.2320  0.3440
   75DSPC   C1A 1041   4.382   1.260   1.822  0.0010  0.0548  0.2345
   75DSPC   C2A 1042   3.922   1.218   1.519 -0.1354 -0.2589  0.0683
   75DSPC   C3A 1043   3.638   0.852   1.511 -0.1517  0.0138  0.1857
   75DSPC   C4A 1044   3.234   0.782   1.286  0.0746  0.1948  0.0931
   75DSPC   C5A 1045   2.874   0.482   1.345  0.1620 -0.3922  0.0414
   75DSPC   C1B 1046   4.568   0.918   1.465  0.2148  0.3814  0.1159
   75DSPC   C2B 1047   4.133   0.864   1.303  0.0403  0.2919 -0.1259
   75DSPC   C3B 1048   3.750   0.780   1.007  0.0549  0.1164  0.0424
   75DSPC   C4B 1049   3.446   0.482   0.879 -0.0672 -0.2386 -0.3000
   75DSPC   C5B 1050   3.049   0.154   0.970  0.0350  0.0941 -0.0330
   76DSPC   NC3 1051   5.704   4.512   4.722  0.3577 -0.0810 -0.0908
   76DSPC   PO4 1052   5.363   4.057   4.748  0.1048  0.0393  0.0240
   76DSPC   GL1 1053   4.938   3.849   4.651  0.0400 -0.3097 -0.2605
   76DSPC   GL2 1054   4.558   4.040   4.865  0.1427  0.3396  0.3367
   76DSPC   C1A 1055   4.633   3.642   4.565 -0.0923 -0.0208 -0.1207
   76DSPC   C2A 1056   4.292   3.601   4.744  0.0468  0.1455 -0.0074
   76DSPC   C3A 1057   3.789   3.617   4.597 -0.1875  0.1352  0.0299
   76DSPC   C4A 1058   3.515   3.607   4.223 -0.1014 -0.2622 -0.1612
   76DSPC   C5A 1059   3.106   3.394   4.109 -0.3090  0.2820 -0.4195
   76DSPC   C1B 1060   4.079   3.918   5.024 -0.2877 -0.0609 -0.0880
   76DSPC   C2B 1061   3.643   4.014   4.889  0.1575  0.2069 -0.0683
   76DSPC   C3B 1062   3.343   3.933   4.620 -0.1247  0.1979  0.0306
   76DSPC   C4B 1063   3.056   4.038   4.388 -0.1521 -0.1100 -0.0408
   76DSPC   C5B 1064   2.735   4.187   4.560  0.2421 -0.0214  0.1818
   77DSPC   NC3 1065   0.491   3.120   1.683  0.0531 -0.1281  0.4284
   77DSPC   PO4 1066   0.498   2.665   1.688 -0.1904 -0.0889 -0.0283
   77DSPC   GL1 1067   0.814   2.612   1.845 -0.1581 -0.0732  0.4011
   77DSPC   GL2 1068   0.770   2.936   2.087  0.2480  0.1896  0.1511
   77DSPC   C1A 1069   1.125   2.302   1.932  0.2267  0.0267 -0.1684
   77DSPC   C2A 1070   1.502   2.044   1.752 -0.0264  0.4348  0.0527
   77DSPC   C3A 1071   1.905   1.862   1.525  0.1988 -0.0019 -0.3407
   77DSPC   C4A 1072   2.224   1.569   1.451  0.1485  0.0092 -0.0560
   77DSPC   C5A 1073   2.558   1.485   1.149  0.2188  0.0105  0.1755
   77DSPC   C1B 1074   1.180   2.764   2.047  0.1414 -0.0641  0.0739
   77DSPC   C2B 1075   1.540   2.759   1.831  0.0284  0.0798 -0.3584
   77DSPC   C3B 1076   1.748   2.927   1.518 -0.3183 -0.3693 -0.3520
   77DSPC   C4B 1077   2.116   2.811   1.303 -0.2138 -0.1187  0.0207
   77DSPC   C5B 1078   2.397   3.002   0.997 -0.0355 -0.1161 -0.2425
   78DSPC   NC3 1079   5.346   0.074   1.158  0.1133 -0.0922 -0.3009
   78DSPC   PO4 1080   5.310   0.595   1.295  0.0184 -0.2685  0.0224
   78DSPC   GL1 1081   4.875   0.455   1.297  0.1212  0.2988  0.2152
   78DSPC   GL2 1082   4.801   0.217   1.050 -0.4722 -0.1612  0.0490
   78DSPC   C1A 1083   4.474   0.393   1.471 -0.1670  0.1990  0.2128
   78DSPC   C2A 1084   4.004   0.418   1.378 -0.0549  0.0237  0.2171
   78DSPC   C3A 1085   3.590   0.415   1.325 -0.0912  0.2127  0.4540
   78DSPC   C4A 1086   3.220   0.180   1.438  0.3746  0.0010 -0.4658
   78DSPC   C5A 1087   2.876  -0.105   1.573  0.0761 -0.2833  0.4389
   78DSPC   C1B 1088   4.329   0.049   1.113 -0.3786  0.0708  0.1554
   78DSPC   C2B 1089   4.121  -0.052   1.520 -0.0213  0.0829 -0.1661
   78DSPC   C3B 1090   3.652   0.160   1.745  0.1074  0.1371 -0.1415
   78DSPC   C4B 1091   3.298   0.154   2.000  0.0429  0.0718 -0.0774
   78DSPC   C5B 1092   2.854  -0.055   2.131  0.1613  0.0114  0.1540
   79DSPC   NC3 1093   4.735   2.398   3.377 -0.2646 -0.2864 -0.0822
   79DSPC   PO4 1094   4.789   2.518   3.724  0.0579  0.2120  0.0525
   79DSPC   GL1 1095   4.380   2.531   3.713  0.2613 -0.0637  0.2157
   79DSPC   GL2 1096   4.384   2.253   3.847 -0.0086  0.2342 -0.0354
   79DSPC   C1A 1097   4.058   2.805   3.613  0.3062  0.4176  0.2050
   79DSPC   C2A 1098   3.817   3.041   3.886 -0.0881 -0.1940 -0.0798
   79DSPC   C3A 1099   3.470   3.194   3.823 -0.2332 -0.0231 -0.0501
   79DSPC   C4A 1100   3.172   3.365   3.572 -0.2224 -0.1107  0.4713
   79DSPC   C5A 1101   3.108   3.419   3.161 -0.0087  0.0711  0.0776
   79DSPC   C1B 1102   4.076   1.904   4.142  0.2603  0.1034  0.0188
   79DSPC   C2B 1103   3.638   1.867   4.319 -0.0498 -0.3092  0.0611
   79DSPC   C3B 1104   3.537   2.258   4.152  0.2915  0.1767  0.0449
   79DSPC   C4B 1105   3.095   2.366   4.245  0.2707  0.1251 -0.2270
   79DSPC   C5B 1106   2.696   2.376   4.454 -0.2394  0.0009  0.1301
   80DSPC   NC3 1107   7.511   7.234   2.847 -0.1422  0.0557  0.2576
   80DSPC   PO4 1108   7.866   7.429   2.514 -0.1075  0.0436 -0.0245
   80DSPC   GL1 1109   8.339   7.371   2.636 -0.1856 -0.1211  0.0909
   80DSPC   GL2 1110   8.403   7.297   2.982  0.1290  0.4700 -0.3937
   80DSPC   C1A 1111   8.845   7.427   2.694  0.0282  0.0242 -0.0616
   80DSPC   C2A 1112   9.217   7.620   3.009 -0.0826  0.0852  0.1911
   80DSPC   C3A 1113   9.677   7.814   3.019  0.1517  0.2099  0.3171
   80DSPC   C4A 1114   9.980   8.124   2.935 -0.1945 -0.0889 -0.0105
   80DSPC   C5A 1115  10.330   8.292   2.802  0.0697 -0.0604  0.0120
   80DSPC   C1B 1116   8.809   7.364   3.238 -0.1341 -0.1174  0.1477
   80DSPC   C2B 1117   9.289   7.299   3.398  0.0741  0.0923  0.2627
   80DSPC   C3B 1118   9.740   7.465   3.378  0.0388 -0.0815  0.0958
   80DSPC   C4B 1119  10.130   7.730   3.353 -0.1763 -0.1222  0.3058
   80DSPC   C5B 1120  10.412   7.630   2.901  0.1932 -0.1306 -0.0275
   81DSPC   NC3 1121   5.147   6.428   1.727  0.2368  0.0317 -0.1755
   81DSPC   PO4 1122   4.828   6.163   1.741  0.1732  0.0690  0.0189
   81DSPC   GL1 1123   4.441   6.155   1.345  0.2060  0.2643 -0.0642
   81DSPC   GL2 1124   4.187   5.884   1.391 -0.1040  0.0906  0.0580
   81DSPC   C1A 1125   4.141   6.371   1.288  0.2449 -0.0955  0.0306
   81DSPC   C2A 1126   3.775   6.528   1.023  0.0115 -0.0076 -0.2501
   81DSPC   C3A 1127   3.534   6.628   0.618  0.1388  0.3849 -0.1401
   81DSPC   C4A 1128   3.116   6.820   0.534 -0.0025 -0.1960  0.0040
   81DSPC   C5A 1129   2.737   6.957   0.713  0.1627  0.0834 -0.1567
   81DSPC   C1B 1130   3.726   6.106   1.276  0.1677 -0.0304 -0.1328
   81DSPC   C2B 1131   3.299   6.300   1.230 -0.0886  0.1379 -0.1688
   81DSPC   C3B 1132   2.846   6.292   1.301  0.3862 -0.2020  0.3259
   81DSPC   C4B 1133   2.348   6.215   1.326 -0.1104 -0.0477  0.3298
   81DSPC   C5B 1134   2.115   6.312   1.659  0.0339  0.2762 -0.3194
   82DSPC   NC3 1135   4.874   0.699   3.771 -0.1184  0.1434 -0.0807
   82DSPC   PO4 1136   4.656   1.081   4.094 -0.2122  0.0797  0.0223
   82DSPC   GL1 1137   4.275   1.008   3.846 -0.1920  0.2663  0.5052
   82DSPC   GL2 1138   4.249   0.636   3.738  0.2979 -0.0249  0.1388
   82DSPC   C1A 1139   3.872   1.059   3.666 -0.2825  0.1381  0.0107
   82DSPC   C2A 1140   3.440   1.268   3.621  0.0394  0.0671 -0.2064
   82DSPC   C3A 1141   2.991   1.259   3.466 -0.1712 -0.0231 -0.4210
   82DSPC   C4A 1142   2.661   0.974   3.809 -0.1357  0.0248  0.0826
   82DSPC   C5A 1143   2.209   0.903   3.920  0.1265 -0.2268 -0.1308
   82DSPC   C1B 1144   3.740   0.506   3.763  0.1668 -0.0408  0.0631
   82DSPC   C2B 1145   3.352   0.164   3.744  0.0881 -0.0135 -0.0134
   82DSPC   C3B 1146   2.939  -0.094   3.876  0.1797  0.0473  0.1626
   82DSPC   C4B 1147   2.699  -0.115   4.258 -0.1620 -0.0122 -0.0561
   82DSPC   C5B 1148   2.838  -0.082   4.717  0.2686  0.2412 -0.0998
   83DSPC   NC3 1149   7.316   4.023   0.740  0.1936  0.2982  0.1734
   83DSPC   PO4 1150   7.764   4.148   0.831 -0.2248 -0.2175 -0.1663
   83DSPC   GL1 1151   8.163   4.253   0.950  0.0473  0.6034  0.2107
   83DSPC   GL2 1152   8.315   4.178   0.621  0.3336  0.0371 -0.4418
   83DSPC   C1A 1153   8.504   4.495   1.084 -0.2930 -0.2420  0.2053
   83DSPC   C2A 1154   8.913   4.389   1.057 -0.2472 -0.0628  0.0790
   83DSPC   C3A 1155   9.316   4.353   1.070  0.0097 -0.1669 -0.0804
   83DSPC   C4A 1156   9.723   4.561   1.137 -0.0703  0.1575 -0.0286
   83DSPC   C5A 1157   9.782   5.022   0.919  0.0316 -0.2584 -0.1834
   83DSPC   C1B 1158   8.789   4.163   0.599  0.3517  0.0247 -0.0811
   83DSPC   C2B 1159   9.182   4.214   0.608 -0.7081  0.0156  0.2909
   83DSPC   C3B 1160   9.681   4.255   0.655 -0.0567  0.2648  0.3907
   83DSPC   C4B 1161  10.088   4.145   0.838  0.0630 -0.2663 -0.1621
   83DSPC   C5B 1162  10.204   4.549   1.003  0.0565 -0.0105 -0.1212
   84DSPC   NC3 1163   4.964   3.082   1.360 -0.0320  0.1124  0.0463
   84DSPC   PO4 1164   4.927   2.594   1.577  0.2194  0.2428  0.0705
   84DSPC   GL1 1165   4.466   2.559   1.593 -0.0405 -0.1833  0.1972
   84DSPC   GL2 1166   4.426   2.408   1.886  0.1200  0.1350 -0.0691
   84DSPC   C1A 1167   4.025   2.309   1.686  0.0974 -0.3577  0.1483
   84DSPC   C2A 1168   3.589   2.455   1.705 -0.0345  0.3644 -0.4364
   84DSPC   C3A 1169   3.241   2.344   1.351  0.1136 -0.0314  0.0898
   84DSPC   C4A 1170   2.902   2.441   1.568  0.3293 -0.0099  0.1340
   84DSPC   C5A 1171   2.530   2.512   1.615 -0.2062 -0.1110  0.3413
   84DSPC   C1B 1172   4.291   2.861   2.140 -0.1223  0.0491  0.2100
   84DSPC   C2B 1173   3.980   3.136   2.266  0.1344  0.1936  0.1205
   84DSPC   C3B 1174   3.765   3.510   2.292  0.1261 -0.0270 -0.3820
   84DSPC   C4B 1175   3.545   3.933   2.372  0.0385  0.0488  0.3626
   84DSPC   C5B 1176   3.172   4.122   2.380  0.0765 -0.1833 -0.2840
   85DSPC   NC3 1177   7.356   1.143   1.653  0.3814  0.0951  0.2065
   85DSPC   PO4 1178   7.778   1.129   1.591 -0.1502 -0.2445 -0.0158
   85DSPC   GL1 1179   8.172   1.258   1.265 -0.1219 -0.1560 -0.1868
   85DSPC   GL2 1180   8.386   1.122   1.430  0.0861  0.2230  0.1218
   85DSPC   C1A 1181   8.627   1.200   0.990  0.1835 -0.0410 -0.1864
   85DSPC   C2A 1182   8.991   0.899   1.039 -0.0254  0.0852 -0.0536
   85DSPC   C3A 1183   9.329   0.985   1.113  0.1167 -0.1531  0.0681
   85DSPC   C4A 1184   9.833   1.062   1.047  0.0478  0.1193 -0.0631
   85DSPC   C5A 1185  10.104   0.835   1.129  0.3371 -0.0642 -0.1191
   85DSPC   C1B 1186   8.574   1.485   1.429 -0.1381  0.2436  0.0700
   85DSPC   C2B 1187   8.733   1.692   1.061 -0.0176  0.0384  0.2059
   85DSPC   C3B 1188   9.074   1.904   0.773  0.0608  0.4709 -0.1136
   85DSPC   C4B 1189   9.315   2.025   0.398  0.1803  0.0980  0.1712
   85DSPC   C5B 1190   9.501   2.269   0.013  0.1337 -0.1326  0.0601
   86DSPC   NC3 1191   5.362   1.446   2.366 -0.1507 -0.0554 -0.0291
   86DSPC   PO4 1192   5.106   1.032   2.577  0.0143 -0.4512 -0.2355
   86DSPC   GL1 1193   4.793   0.991   2.546 -0.0094 -0.3185  0.1016
   86DSPC   GL2 1194   4.711   0.661   2.689  0.2326  0.0025 -0.0966
   86DSPC   C1A 1195   4.458   1.193   2.419  0.2370 -0.2001  0.1523
   86DSPC   C2A 1196   3.914   1.164   2.448 -0.0193  0.3035 -0.0576
   86DSPC   C3A 1197   3.585   1.079   2.349  0.2217  0.2811  0.0216
   86DSPC   C4A 1198   3.167   1.055   2.162 -0.0490  0.2445  0.2077
   86DSPC   C5A 1199   2.782   0.758   2.141  0.2058 -0.2969  0.4351
   86DSPC   C1B 1200   4.300   0.545   2.804  0.2068 -0.3594  0.0276
   86DSPC   C2B 1201   3.834   0.409   2.890  0.0624  0.0583  0.0443
   86DSPC   C3B 1202   3.474   0.278   3.231  0.2552 -0.3328 -0.0923
   86DSPC   C4B 1203   3.083   0.269   3.233 -0.1268 -0.0296  0.2302
   86DSPC   C5B 1204   2.853   0.455   3.525  0.1323 -0.1705  0.0161
   87DSPC   NC3 1205   5.051   1.176   4.961  0.0255 -0.0063 -0.1491
   87DSPC   PO4 1206   4.710   0.819   5.140  0.1080  0.1359  0.1387
   87DSPC   GL1 1207   4.285   0.976   5.202 -0.3003 -0.3447  0.1231
   87DSPC   GL2 1208   4.190   0.769   5.367  0.0339 -0.3659  0.0453
   87DSPC   C1A 1209   4.043   1.381   5.038 -0.0119  0.0191  0.2502
   87DSPC   C2A 1210   3.612   1.537   5.158 -0.2320  0.0533  0.5633
   87DSPC   C3A 1211   3.258   1.804   5.313  0.1717 -0.1762 -0.2802
   87DSPC   C4A 1212   2.934   1.977   5.573  0.0049 -0.0565  0.3361
   87DSPC   C5A 1213   2.804   2.336   5.832  0.0453  0.1060 -0.0544
   87DSPC   C1B 1214   3.837   0.666   5.126 -0.2186 -0.0679  0.0576
   87DSPC   C2B 1215   3.310   0.734   5.050 -0.0672 -0.3879  0.4639
   87DSPC   C3B 1216   3.084   0.765   5.399  0.1822 -0.1704 -0.1050
   87DSPC   C4B 1217   2.896   0.490   5.663  0.2553 -0.1728  0.0137
   87DSPC   C5B 1218   2.594   0.049   5.561 -0.1674 -0.0501 -0.1649
   88DSPC   NC3 1219   0.196   0.836   0.360 -0.2569 -0.0385 -0.1787
   88DSPC   PO4 1220  -0.125   0.544   0.108 -0.3113  0.0218 -0.0370
   88DSPC   GL1 1221   0.198   0.325   0.181  0.1736  0.3281  0.0548
   88DSPC   GL2 1222   0.333   0.049   0.038  0.1364 -0.0466 -0.0619
   88DSPC   C1A 1223   0.602   0.528   0.171 -0.0242  0.2064  0.0812
   88DSPC   C2A 1224   1.081   0.626   0.134  0.3075  0.1184 -0.2427
   88DSPC   C3A 1225   1.292   0.645  -0.230 -0.2840  0.1157  0.0955
   88DSPC   C4A 1226   1.443   0.977  -0.625  0.0482  0.0210  0.0104
   88DSPC   C5A 1227   1.725   1.238  -0.931 -0.0362  0.1636 -0.2034
   88DSPC   C1B 1228   0.688  -0.004  -0.137  0.2033  0.0825  0.2677
   88DSPC   C2B 1229   1.157   0.033  -0.167  0.0885  0.3200  0.2252
   88DSPC   C3B 1230   1.552  -0.031  -0.158 -0.0943  0.1433  0.2992
   88DSPC   C4B 1231   1.953  -0.190  -0.158  0.1931 -0.0390  0.3558
   88DSPC   C5B 1232   2.364  -0.393  -0.066 -0.1198  0.1538  0.0785
   89DSPC   NC3 1233   0.094   1.391   4.392 -0.2772 -0.0280 -0.0455
   89DSPC   PO4 1234   0.329   1.790   4.316 -0.1066 -0.0587 -0.3559
   89DSPC   GL1 1235   0.765   1.907   4.343 -0.0454  0.0415 -0.0988
   89DSPC   GL2 1236   0.787   1.907   4.689  0.0913 -0.0937  0.1432
   89DSPC   C1A 1237   1.144   1.832   4.053 -0.0587  0.0052  0.1088
   89DSPC   C2A 1238   1.523   1.869   3.714 -0.0835  0.2384 -0.0728
   89DSPC   C3A 1239   1.599   1.443   3.397  0.0397 -0.0215 -0.2214
   89DSPC   C4A 1240   1.865   1.628   3.022  0.1621 -0.1275  0.2010
   89DSPC   C5A 1241   1.966   2.038   2.810  0.1260 -0.0881  0.0953
   89DSPC   C1B 1242   1.281   2.034   4.777 -0.0813 -0.3490  0.0395
   89DSPC   C2B 1243   1.646   1.999   4.762 -0.0989  0.1992  0.0312
   89DSPC   C3B 1244   2.026   1.652   4.776 -0.1123  0.2566  0.3056
   89DSPC   C4B 1245   2.442   1.634   4.874 -0.1144  0.3520 -0.0013
   89DSPC   C5B 1246   2.896   1.535   4.805 -0.3340  0.0412  0.0295
   90DSPC   NC3 1247   0.335   2.486   1.298 -0.1434 -0.1758  0.0127
   90DSPC   PO4 1248   0.337   2.932   1.208 -0.1876  0.0472  0.1061
   90DSPC   GL1 1249   0.760   2.840   1.223 -0.1668  0.3524  0.3414
   90DSPC   GL2 1250   0.878   3.085   1.323 -0.1288 -0.0269 -0.1903
   90DSPC   C1A 1251   1.100   2.727   1.044 -0.1859  0.0625  0.0985
   90DSPC   C2A 1252   1.333   2.834   0.565  0.0563 -0.4633 -0.0133
   90DSPC   C3A 1253   1.549   2.828   0.123  0.0404 -0.0539  0.1175
   90DSPC   C4A 1254   1.991   2.753   0.021 -0.2067  0.1843 -0.1740
   90DSPC   C5A 1255   2.353   2.467  -0.162 -0.1369 -0.0498  0.3713
   90DSPC   C1B 1256   1.256   3.028   1.397 -0.2865 -0.1247  0.1278
   90DSPC   C2B 1257   1.504   3.050   0.988  0.2207  0.2903 -0.0564
   90DSPC   C3B 1258   1.525   3.451   0.881 -0.0676  0.0342  0.2745
   90DSPC   C4B 1259   1.886   3.620   0.737 -0.1661  0.2869 -0.1256
   90DSPC   C5B 1260   2.308   3.657   0.667 -0.1235  0.2175  0.0671
   91DSPC   NC3 1261   7.221   6.208   0.464 -0.1837  0.1742 -0.0281
   91DSPC   PO4 1262   7.621   6.400   0.238 -0.1150 -0.1003  0.3590
   91DSPC   GL1 1263   8.066   6.387   0.174  0.1595  0.1397 -0.3257
   91DSPC   GL2 1264   8.153   6.537   0.420  0.0584  0.2532 -0.0926
   91DSPC   C1A 1265   8.634   6.323   0.325  0.1623 -0.1244 -0.1471
   91DSPC   C2A 1266   9.172   6.273   0.412 -0.2478 -0.1478  0.2477
   91DSPC   C3A 1267   9.617   6.261   0.346  0.1373 -0.0783 -0.0284
   91DSPC   C4A 1268   9.989   6.368   0.296 -0.3047 -0.0338  0.1826
   91DSPC   C5A 1269  10.280   6.657   0.366  0.2450 -0.0685  0.4956
   91DSPC   C1B 1270   8.461   6.730   0.655  0.0640 -0.1333  0.0028
   91DSPC   C2B 1271   8.686   7.031   0.786  0.1091  0.5314  0.2581
   91DSPC   C3B 1272   9.142   7.125   0.740 -0.0922  0.0476  0.2069
   91DSPC   C4B 1273   9.513   7.155   0.588  0.0064 -0.0432  0.1466
   91DSPC   C5B 1274   9.809   7.317   0.466  0.0040 -0.2938  0.1735
   92DSPC   NC3 1275   0.543   2.762   3.069 -0.4526 -0.1262 -0.4541
   92DSPC   PO4 1276   0.691   2.620   3.469 -0.0247  0.1745  0.0936
   92DSPC   GL1 1277   0.929   2.935   3.287  0.0138 -0.1676  0.1695
   92DSPC   GL2 1278   0.884   3.256   3.353  0.0385 -0.0333  0.1707
   92DSPC   C1A 1279   1.112   3.246   2.915  0.1984  0.2915  0.3563
   92DSPC   C2A 1280   1.527   3.386   2.756  0.2357 -0.2628  0.1149
   92DSPC   C3A 1281   1.847   3.375   2.655 -0.5485  0.1351 -0.0806
   92DSPC   C4A 1282   2.225   3.384   2.895 -0.1492 -0.0401  0.1576
   92DSPC   C5A 1283   2.601   3.264   3.104  0.1255  0.0941 -0.0459
   92DSPC   C1B 1284   1.345   3.089   3.323  0.0649  0.1905 -0.2618
   92DSPC   C2B 1285   1.697   2.870   3.473 -0.0801  0.0250  0.2505
   92DSPC   C3B 1286   1.978   2.562   3.272 -0.1012  0.1005 -0.0721
   92DSPC   C4B 1287   2.284   2.659   3.081 -0.0692 -0.0896  0.1927
   92DSPC   C5B 1288   2.473   2.207   2.862  0.0408 -0.1155  0.1903
   93DSPC   NC3 1289   4.959   6.711   5.331  0.3570  0.0748  0.2190
   93DSPC   PO4 1290   5.068   7.170   5.377 -0.4540 -0.1279  0.0944
   93DSPC   GL1 1291   4.615   7.309   5.522  0.1588  0.1289 -0.1209
   93DSPC   GL2 1292   4.359   7.555   5.703 -0.1418 -0.0079 -0.1021
   93DSPC   C1A 1293   4.319   7.438   5.235 -0.3148 -0.1623 -0.3523
   93DSPC   C2A 1294   3.983   7.276   5.136  0.1201  0.0407  0.0943
   93DSPC   C3A 1295   3.569   7.365   5.044 -0.2178 -0.1243 -0.5724
   93DSPC   C4A 1296   3.566   7.454   4.624 -0.3437 -0.1088 -0.2389
   93DSPC   C5A 1297   3.935   7.462   4.362 -0.1812  0.1760  0.3856
   93DSPC   C1B 1298   4.008   7.432   6.037  0.1005  0.0115  0.0232
   93DSPC   C2B 1299   3.818   7.004   6.267  0.0116 -0.2399 -0.0835
   93DSPC   C3B 1300   3.394   6.852   6.457  0.0265  0.0695  0.3468
   93DSPC   C4B 1301   3.045   6.627   6.391  0.1778 -0.1363  0.3367
   93DSPC   C5B 1302   2.818   6.366   6.174 -0.0985 -0.0091 -0.0113
   94DSPC   NC3 1303   5.248   2.788   4.452 -0.0361 -0.2647  0.1802
   94DSPC   PO4 1304   4.966   2.341   4.446 -0.2843  0.1732  0.0196
   94DSPC   GL1 1305   4.610   2.418   4.303 -0.0728  0.3447  0.1733
   94DSPC   GL2 1306   4.710   2.728   4.236 -0.1584 -0.1331 -0.1783
   94DSPC   C1A 1307   4.255   2.465   4.316  0.0489  0.2003 -0.1896
   94DSPC   C2A 1308   3.977   2.529   4.048  0.0622  0.0970 -0.0113
   94DSPC   C3A 1309   3.602   2.552   3.779  0.1779 -0.1591 -0.2446
   94DSPC   C4A 1310   3.124   2.575   3.784 -0.0418 -0.1127  0.3543
   94DSPC   C5A 1311   2.739   2.549   3.931  0.0160  0.1708 -0.2494
   94DSPC   C1B 1312   4.313   2.954   4.023 -0.2303  0.1790 -0.1177
   94DSPC   C2B 1313   4.203   3.314   3.755 -0.0338 -0.1548  0.0437
   94DSPC   C3B 1314   3.879   3.561   3.725 -0.0818 -0.0345 -0.1119
   94DSPC   C4B 1315   3.553   3.686   3.588  0.1460  0.1989  0.1955
   94DSPC   C5B 1316   3.219   3.939   3.351  0.2609  0.0440  0.1809
   95DSPC   NC3 1317   4.907   1.071   0.049 -0.3539  0.0302 -0.0721
   95DSPC   PO4 1318   4.820   1.013   0.575  0.0020 -0.1450 -0.4251
   95DSPC   GL1 1319   4.491   1.251   0.680  0.2213  0.4537  0.3095
   95DSPC   GL2 1320   4.301   0.970   0.737 -0.1265  0.1173 -0.0514
   95DSPC   C1A 1321   4.084   1.454   0.459 -0.2454 -0.2316 -0.3900
   95DSPC   C2A 1322   3.589   1.513   0.362 -0.0223 -0.0617 -0.3269
   95DSPC   C3A 1323   3.304   1.181   0.199 -0.0855  0.1347 -0.0551
   95DSPC   C4A 1324   2.956   1.079   0.408  0.0924  0.0152 -0.3791
   95DSPC   C5A 1325   2.596   0.909   0.299  0.3967 -0.3001  0.0358
   95DSPC   C1B 1326   4.009   1.256   0.927  0.0775  0.6484  0.2440
   95DSPC   C2B 1327   3.546   1.261   1.104  0.1644  0.0730  0.3088
   95DSPC   C3B 1328   3.244   1.404   0.821 -0.1206  0.0112  0.0182
   95DSPC   C4B 1329   2.997   1.584   0.545 -0.2503 -0.0351 -0.0202
   95DSPC   C5B 1330   2.634   1.864   0.696  0.3306  0.0364  0.1778
   96DSPC   NC3 1331   0.086   6.015   4.965  0.2278  0.2677 -0.1070
   96DSPC   PO4 1332   0.213   5.982   5.397 -0.2869 -0.0426  0.5136
   96DSPC   GL1 1333   0.530   5.803   5.625 -0.2159 -0.0768 -0.0981
   96DSPC   GL2 1334   0.759   5.789   5.435 -0.1536 -0.0398  0.0547
   96DSPC   C1A 1335   1.028   5.770   5.856  0.0417 -0.5071 -0.0521
   96DSPC   C2A 1336   1.490   5.743   5.839 -0.0855 -0.1864 -0.1449
   96DSPC   C3A 1337   1.930   5.723   5.970  0.0774 -0.1130 -0.0837
   96DSPC   C4A 1338   2.441   5.864   6.115  0.2337 -0.1271  0.0006
   96DSPC   C5A 1339   2.633   5.924   6.436 -0.1382 -0.2374  0.3539
   96DSPC   C1B 1340   1.020   5.507   5.241 -0.0014 -0.1804  0.3354
   96DSPC   C2B 1341   1.247   5.312   4.932 -0.3897 -0.3789 -0.0688
   96DSPC   C3B 1342   1.627   5.396   5.002 -0.1506  0.0510  0.2489
   96DSPC   C4B 1343   1.867   5.716   4.839  0.1959 -0.0513  0.1474
   96DSPC   C5B 1344   2.102   6.124   4.717 -0.0682 -0.2722 -0.0078
   97DSPC   NC3 1345   5.056   3.247   0.437  0.0137  0.2493  0.0315
   97DSPC   PO4 1346   4.970   3.289   0.940  0.0240 -0.0485 -0.1446
   97DSPC   GL1 1347   4.518   3.299   0.849 -0.0707 -0.0615 -0.0312
   97DSPC   GL2 1348   4.404   3.287   0.480  0.0160 -0.1679  0.4586
   97DSPC   C1A 1349   4.139   3.129   0.942  0.0070 -0.1283 -0.1302
   97DSPC   C2A 1350   3.737   3.324   1.191 -0.0323  0.2537  0.2206
   97DSPC   C3A 1351   3.470   3.341   1.486  0.1465 -0.1431  0.0224
   97DSPC   C4A 1352   3.092   3.314   1.765 -0.1726  0.0085 -0.1335
   97DSPC   C5A 1353   2.803   3.234   2.064  0.1319 -0.2564 -0.2788
   97DSPC   C1B 1354   4.134   3.599   0.383  0.3325  0.0761 -0.3087
   97DSPC   C2B 1355   3.682   3.648   0.305 -0.3155 -0.1719 -0.2355
   97DSPC   C3B 1356   3.249   3.686   0.129 -0.0313  0.0248 -0.0206
   97DSPC   C4B 1357   2.827   3.707   0.024  0.1310  0.0139 -0.0533
   97DSPC   C5B 1358   2.393   3.587  -0.053 -0.3618  0.1090  0.0320
   98DSPC   NC3 1359   4.866   2.940   5.161 -0.5257  0.4201  0.0808
   98DSPC   PO4 1360   4.844   2.878   5.679  0.3135 -0.1662 -0.0991
   98DSPC   GL1 1361   4.547   3.183   5.481  0.2179  0.0867 -0.3302
   98DSPC   GL2 1362   4.224   3.003   5.473  0.1573  0.4223  0.0201
   98DSPC   C1A 1363   4.213   3.438   5.277 -0.1805  0.2794 -0.0747
   98DSPC   C2A 1364   3.774   3.516   5.292  0.3163  0.1818  0.0435
   98DSPC   C3A 1365   3.415   3.523   5.002 -0.2934 -0.1042  0.1334
   98DSPC   C4A 1366   3.023   3.438   5.048  0.0266 -0.0117  0.1711
   98DSPC   C5A 1367   2.892   3.129   5.340  0.0083 -0.0991  0.0509
   98DSPC   C1B 1368   3.922   3.122   5.762  0.0609  0.0398  0.0349
   98DSPC   C2B 1369   3.507   3.173   5.700 -0.0083  0.2099  0.1331
   98DSPC   C3B 1370   3.044   3.183   5.787 -0.0424  0.1690 -0.0099
   98DSPC   C4B 1371   2.637   3.299   5.802  0.1016 -0.1951  0.0933
   98DSPC   C5B 1372   2.344   3.201   5.736 -0.0971  0.2120 -0.1498
   99DSPC   NC3 1373   0.302   6.051   0.503  0.1405  0.2271  0.2161
   99DSPC   PO4 1374   0.272   5.621   0.597 -0.4739 -0.1614 -0.2461
   99DSPC   GL1 1375   0.644   5.612   0.902 -0.2731  0.3496 -0.3690
   99DSPC   GL2 1376   0.710   5.534   1.240  0.2544  0.0283  0.0162
   99DSPC   C1A 1377   1.137   5.641   1.006 -0.1229  0.0035 -0.2360
   99DSPC   C2A 1378   1.605   5.484   0.910 -0.0542  0.0009 -0.0709
   99DSPC   C3A 1379   1.912   5.550   1.088 -0.0695  0.1012  0.4443
   99DSPC   C4A 1380   1.942   5.319   1.422 -0.0739 -0.0827 -0.2104
   99DSPC   C5A 1381   2.262   4.976   1.446 -0.1732 -0.0070  0.0480
   99DSPC   C1B 1382   0.870   5.945   1.293 -0.2204  0.1968 -0.1145
   99DSPC   C2B 1383   1.103   6.388   1.030  0.0429 -0.1032  0.1077
   99DSPC   C3B 1384   1.505   6.494   1.021  0.2785 -0.1133  0.1297
   99DSPC   C4B 1385   1.825   6.601   0.811 -0.2806  0.0703 -0.0350
   99DSPC   C5B 1386   2.184   6.851   0.814  0.0189 -0.0984  0.2061
  100DSPC   NC3 1387   0.234   6.430   5.159 -0.0843  0.3683  0.0490
  100DSPC   PO4 1388   0.169   6.779   5.060 -0.0728  0.2964 -0.1008
  100DSPC   GL1 1389   0.658   6.798   5.041  0.1307 -0.2606  0.0065
  100DSPC   GL2 1390   0.747   6.635   5.282 -0.2011 -0.2748 -0.1068
  100DSPC   C1A 1391   0.992   7.059   5.292  0.2585  0.0562 -0.0009
  100DSPC   C2A 1392   1.434   7.095   5.422 -0.1240  0.3692 -0.2539
  100DSPC   C3A 1393   1.791   6.866   5.562 -0.0912 -0.1174 -0.0451
  100DSPC   C4A 1394   2.100   6.667   5.326 -0.2443 -0.1982 -0.0875
  100DSPC   C5A 1395   2.502   6.733   5.183 -0.1401  0.4781  0.2266
  100DSPC   C1B 1396   0.869   6.232   5.204  0.1829  0.0787  0.1869
  100DSPC   C2B 1397   1.204   5.999   5.475 -0.0848  0.0477  0.0934
  100DSPC   C3B 1398   1.451   5.718   5.326 -0.1322 -0.0952 -0.2941
  100DSPC   C4B 1399   1.832   5.905   5.466 -0.0984 -0.2076  0.0850
  100DSPC   C5B 1400   2.138   6.194   5.227 -0.3903  0.0530  0.2426
  101DSPC   NC3 1401   7.481   0.274   1.127  0.0327 -0.1375 -0.2274
  101DSPC   PO4 1402   7.601   0.241   1.569  0.3964 -0.1189  0.0701
  101DSPC   GL1 1403   8.087  -0.005   1.606 -0.0931  0.2053  0.0768
  101DSPC   GL2 1404   8.084  -0.341   1.601  0.2880  0.0784 -0.4413
  101DSPC   C1A 1405   8.587  -0.021   1.664 -0.0511  0.2178 -0.3381
  101DSPC   C2A 1406   9.071  -0.196   1.646  0.1613  0.0426 -0.3204
  101DSPC   C3A 1407   9.449  -0.372   1.623  0.0741  0.0095  0.2707
  101DSPC   C4A 1408   9.886  -0.476   1.455  0.1058  0.0403 -0.0059
  101DSPC   C5A 1409  10.019  -0.823   1.606  0.3575  0.0432  0.0285
  101DSPC   C1B 1410   8.383  -0.339   1.283 -0.0649  0.0781 -0.0124
  101DSPC   C2B 1411   8.808  -0.241   1.198 -0.0266  0.1885 -0.2222
  101DSPC   C3B 1412   9.193  -0.039   1.155 -0.1020  0.1676  0.0686
  101DSPC   C4B 1413   9.651   0.114   1.315  0.0558 -0.0002 -0.3133
  101DSPC   C5B 1414   9.994   0.390   1.412  0.2229  0.1926  0.2600
  102DSPC   NC3 1415   0.201   5.213   4.315  0.0930  0.0054  0.3060
  102DSPC   PO4 1416   0.209   5.334   3.837  0.2578 -0.0798 -0.0704
  102DSPC   GL1 1417   0.482   5.648   3.665  0.0339  0.2790  0.0098
  102DSPC   GL2 1418   0.364   5.960   3.706  0.2687  0.0832 -0.1838
  102DSPC   C1A 1419   0.763   6.012   3.945 -0.0919  0.0721  0.1556
  102DSPC   C2A 1420   1.071   6.197   4.246  0.1163  0.0841  0.0849
  102DSPC   C3A 1421   1.364   6.368   4.459 -0.0635  0.1798  0.1758
  102DSPC   C4A 1422   1.782   6.527   4.501  0.0242  0.1971 -0.2725
  102DSPC   C5A 1423   2.179   6.596   4.830  0.1469  0.2097  0.1196
  102DSPC   C1B 1424   0.835   5.978   3.468 -0.1308  0.0075 -0.3687
  102DSPC   C2B 1425   1.064   6.409   3.314 -0.0898  0.0861  0.1623
  102DSPC   C3B 1426   1.468   6.532   3.159  0.1762  0.0131  0.0591
  102DSPC   C4B 1427   1.999   6.486   3.100  0.0748 -0.0696  0.1491
  102DSPC   C5B 1428   2.401   6.721   3.113  0.2473  0.3078 -0.0401
  103DSPC   NC3 1429   5.044   3.375   4.007  0.0003 -0.1751 -0.1315
  103DSPC   PO4 1430   5.109   3.723   3.773 -0.1834  0.0704  0.0877
  103DSPC   GL1 1431   4.701   3.904   3.614  0.2309 -0.2782  0.1369
  103DSPC   GL2 1432   4.422   3.685   3.372  0.1628 -0.2953  0.1738
  103DSPC   C1A 1433   4.299   3.943   3.786  0.3631  0.1799  0.3200
  103DSPC   C2A 1434   3.932   4.042   3.923 -0.1896  0.0276  0.0758
  103DSPC   C3A 1435   3.616   4.264   4.159  0.0788 -0.0679  0.3181
  103DSPC   C4A 1436   3.380   4.678   4.147 -0.1786  0.0785  0.1666
  103DSPC   C5A 1437   3.689   4.991   4.086  0.2511  0.1275 -0.0413
  103DSPC   C1B 1438   4.067   3.975   3.325 -0.1148  0.0103 -0.1408
  103DSPC   C2B 1439   3.829   4.251   3.512 -0.4403 -0.0969  0.0135
  103DSPC   C3B 1440   3.369   4.157   3.740  0.1449  0.1668  0.1562
  103DSPC   C4B 1441   3.109   4.306   3.999  0.4470 -0.5761  0.1601
  103DSPC   C5B 1442   2.863   4.576   3.941 -0.1225  0.3157 -0.1300
  104DSPC   NC3 1443   0.699   4.701   3.649 -0.2052  0.4534  0.1796
  104DSPC   PO4 1444   0.335   4.922   3.364 -0.3933  0.0168  0.0816
  104DSPC   GL1 1445   0.595   5.173   3.677 -0.0969 -0.2737 -0.0170
  104DSPC   GL2 1446   0.717   5.311   3.364  0.0060 -0.3917 -0.2972
  104DSPC   C1A 1447   0.872   5.536   3.934 -0.0878  0.1145  0.0394
  104DSPC   C2A 1448   1.290   5.613   4.077 -0.1230 -0.1055 -0.1538
  104DSPC   C3A 1449   1.638   5.428   3.963 -0.0888 -0.1435  0.0901
  104DSPC   C4A 1450   2.048   5.180   3.927 -0.1048 -0.0257 -0.0852
  104DSPC   C5A 1451   2.386   4.859   3.946  0.0240  0.0561 -0.2108
  104DSPC   C1B 1452   1.015   5.507   3.486 -0.1154 -0.3343  0.2649
  104DSPC   C2B 1453   1.412   5.655   3.583  0.1737 -0.0907 -0.1032
  104DSPC   C3B 1454   1.741   5.932   3.747 -0.1551 -0.1676  0.0126
  104DSPC   C4B 1455   1.845   6.447   3.633 -0.2159  0.0279 -0.2574
  104DSPC   C5B 1456   1.959   6.863   3.518 -0.0392  0.0790  0.1136
  105DSPC   NC3 1457   5.451   5.984   0.565 -0.0678  0.0654  0.1075
  105DSPC   PO4 1458   5.151   5.996   0.848  0.1439  0.0295  0.0442
  105DSPC   GL1 1459   4.797   5.651   0.770 -0.1296 -0.0986 -0.1352
  105DSPC   GL2 1460   4.766   5.367   0.599  0.1318  0.1548  0.0199
  105DSPC   C1A 1461   4.351   5.602   0.711  0.0469  0.1140 -0.1327
  105DSPC   C2A 1462   4.073   5.402   0.554  0.1410 -0.3288  0.0418
  105DSPC   C3A 1463   3.654   5.331   0.541 -0.0089 -0.1832  0.0953
  105DSPC   C4A 1464   3.292   5.591   0.713 -0.2969  0.0836  0.0289
  105DSPC   C5A 1465   3.189   6.005   0.876 -0.2660  0.2003  0.1763
  105DSPC   C1B 1466   4.442   5.105   0.824 -0.1386 -0.0268  0.1779
  105DSPC   C2B 1467   4.005   5.084   0.906 -0.1043  0.5336 -0.4301
  105DSPC   C3B 1468   3.608   4.938   0.801 -0.1263 -0.2629 -0.0741
  105DSPC   C4B 1469   3.509   4.552   0.417  0.1408  0.0020 -0.1014
  105DSPC   C5B 1470   3.339   4.570  -0.016  0.0483  0.0749 -0.0540
  106DSPC   NC3 1471   0.445   6.308   4.072 -0.1097  0.2257  0.0416
  106DSPC   PO4 1472   0.225   6.046   4.433 -0.0368 -0.0627 -0.1567
  106DSPC   GL1 1473   0.639   6.095   4.597  0.2781  0.4587  0.2343
  106DSPC   GL2 1474   0.566   6.006   4.882  0.0881 -0.1145  0.0252
  106DSPC   C1A 1475   0.926   6.336   4.661  0.1376  0.0683 -0.0552
  106DSPC   C2A 1476   1.273   6.577   4.961  0.2999  0.1661  0.2258
  106DSPC   C3A 1477   1.686   6.790   4.980  0.0956  0.0707 -0.0859
  106DSPC   C4A 1478   2.063   7.054   4.968  0.3368  0.2851 -0.2460
  106DSPC   C5A 1479   2.376   7.472   4.950 -0.1675 -0.2494 -0.0342
  106DSPC   C1B 1480   1.027   5.904   4.883 -0.2066  0.0691  0.0833
  106DSPC   C2B 1481   1.491   6.056   4.898 -0.1175 -0.2510  0.0057
  106DSPC   C3B 1482   1.583   6.303   5.256 -0.0411  0.1036  0.0210
  106DSPC   C4B 1483   1.299   6.595   5.487  0.0853 -0.3589 -0.1936
  106DSPC   C5B 1484   1.328   6.780   5.886  0.2963 -0.0190  0.2459
  107DSPC   NC3 1485   0.334   4.676   2.861  0.1010 -0.0783  0.1000
  107DSPC   PO4 1486   0.211   4.673   2.403  0.0604 -0.3802  0.0194
  107DSPC   GL1 1487   0.690   4.882   2.604 -0.4554 -0.1724 -0.2363
  107DSPC   GL2 1488   0.890   4.815   2.397  0.0309 -0.1034  0.0526
  107DSPC   C1A 1489   0.935   4.816   2.947  0.2591  0.2460 -0.1369
  107DSPC   C2A 1490   1.131   5.006   3.431 -0.0237  0.2146  0.0105
  107DSPC   C3A 1491   1.533   5.138   3.575 -0.2245  0.1130  0.0652
  107DSPC   C4A 1492   1.925   5.497   3.570  0.0362  0.0228 -0.1438
  107DSPC   C5A 1493   2.351   5.836   3.597  0.0377 -0.2852 -0.0368
  107DSPC   C1B 1494   1.259   4.948   2.599  0.1438  0.0505 -0.3794
  107DSPC   C2B 1495   1.710   4.798   2.717  0.0732  0.1258 -0.0543
  107DSPC   C3B 1496   1.970   4.647   3.104  0.1071  0.0468 -0.1820
  107DSPC   C4B 1497   2.343   4.300   3.364  0.0362 -0.1018  0.2206
  107DSPC   C5B 1498   2.366   3.951   3.564  0.1582  0.2368  0.0237
  108DSPC   NC3 1499   0.570   4.834   5.058 -0.0034  0.1519 -0.0164
  108DSPC   PO4 1500   0.371   5.095   4.825 -0.0098  0.0723 -0.2895
  108DSPC   GL1 1501   0.792   4.974   4.610 -0.0646  0.0547 -0.2110
  108DSPC   GL2 1502   0.906   4.668   4.501  0.0985  0.0322  0.0824
  108DSPC   C1A 1503   1.239   5.169   4.473  0.3534  0.0049  0.0801
  108DSPC   C2A 1504   1.553   5.341   4.472 -0.0895  0.0477 -0.1211
  108DSPC   C3A 1505   1.946   5.389   4.413 -0.0313  0.2031 -0.1679
  108DSPC   C4A 1506   2.306   5.661   4.513 -0.0456 -0.1066  0.0875
  108DSPC   C5A 1507   2.757   5.587   4.453 -0.0775  0.3078  0.2548
  108DSPC   C1B 1508   1.294   4.657   4.205 -0.4826 -0.1282  0.0234
  108DSPC   C2B 1509   1.624   4.384   4.039 -0.4058  0.1665  0.2404
  108DSPC   C3B 1510   2.029   4.201   3.976  0.0261 -0.0089 -0.1155
  108DSPC   C4B 1511   1.858   4.100   3.488 -0.2980  0.1439 -0.0626
  108DSPC   C5B 1512   1.581   4.284   3.263 -0.0604 -0.0700 -0.1202
  109DSPC   NC3 1513   0.527   5.736   2.365 -0.0378  0.1413 -0.1033
  109DSPC   PO4 1514   0.584   6.189   2.515 -0.1335  0.3250 -0.0771
  109DSPC   GL1 1515   0.908   6.285   2.535 -0.0468 -0.1741 -0.3665
  109DSPC   GL2 1516   1.218   6.271   2.830 -0.0708 -0.0113 -0.2198
  109DSPC   C1A 1517   1.206   6.355   2.280 -0.3440  0.0163  0.0137
  109DSPC   C2A 1518   1.595   6.578   2.415  0.2407 -0.0276 -0.0443
  109DSPC   C3A 1519   1.980   6.755   2.571 -0.1746 -0.3066  0.4338
  109DSPC   C4A 1520   2.403   6.580   2.638 -0.2255 -0.2403 -0.0160
  109DSPC   C5A 1521   2.685   6.313   2.799 -0.0523  0.0087 -0.1845
  109DSPC   C1B 1522   1.583   6.116   2.518 -0.4236 -0.1280  0.0248
  109DSPC   C2B 1523   1.797   5.718   2.334  0.3796  0.2772  0.2681
  109DSPC   C3B 1524   2.153   5.530   2.084 -0.0661 -0.4788 -0.0358
  109DSPC   C4B 1525   2.329   5.176   2.088  0.1248 -0.1397  0.0115
  109DSPC   C5B 1526   2.783   5.047   2.141 -0.0306 -0.0109 -0.0293
  110DSPC   NC3 1527   5.398   1.427   3.778 -0.0943  0.0332  0.3373
  110DSPC   PO4 1528   5.228   1.835   3.576  0.0674  0.0807 -0.1742
  110DSPC   GL1 1529   4.835   1.966   3.317  0.0031 -0.2000  0.4450
  110DSPC   GL2 1530   4.655   1.909   3.581  0.2024 -0.1381  0.1482
  110DSPC   C1A 1531   4.577   1.589   3.134  0.2855 -0.0731 -0.1905
  110DSPC   C2A 1532   4.502   1.241   2.953 -0.2518 -0.0762  0.1897
  110DSPC   C3A 1533   4.095   0.982   2.889 -0.0121 -0.2696 -0.0922
  110DSPC   C4A 1534   3.584   0.972   2.809  0.3967  0.3541 -0.1813
  110DSPC   C5A 1535   3.142   0.900   2.634  0.0467 -0.0203  0.0845
  110DSPC   C1B 1536   4.264   1.872   3.550  0.1253  0.0497 -0.0202
  110DSPC   C2B 1537   3.877   2.132   3.746 -0.0081 -0.0390 -0.0783
  110DSPC   C3B 1538   3.475   2.093   3.721  0.0854 -0.2129  0.2054
  110DSPC   C4B 1539   3.345   1.737   3.908  0.0553  0.2405 -0.0908
  110DSPC   C5B 1540   3.524   1.405   4.158 -0.0579  0.1016 -0.1883
  111DSPC   NC3 1541   4.921   2.342   1.148 -0.0808  0.3967  0.0727
  111DSPC   PO4 1542   4.680   2.733   1.093 -0.1164  0.4323  0.1452
  111DSPC   GL1 1543   4.337   2.515   0.970 -0.1793 -0.0089 -0.2498
  111DSPC   GL2 1544   4.336   2.398   0.639  0.2877  0.0879  0.0765
  111DSPC   C1A 1545   3.944   2.604   1.176  0.0014  0.2564  0.0163
  111DSPC   C2A 1546   3.549   2.811   1.386 -0.1276  0.0595 -0.4366
  111DSPC   C3A 1547   3.217   2.816   1.672  0.0599 -0.2365  0.1742
  111DSPC   C4A 1548   2.783   2.934   1.725  0.1103  0.2235 -0.2961
  111DSPC   C5A 1549   2.368   3.195   1.528  0.1978  0.1463 -0.1968
  111DSPC   C1B 1550   4.059   2.689   0.622 -0.2843 -0.3522 -0.0410
  111DSPC   C2B 1551   3.707   2.944   0.858  0.3060 -0.1458  0.1384
  111DSPC   C3B 1552   3.356   3.128   0.804  0.0188 -0.0395 -0.2142
  111DSPC   C4B 1553   3.242   3.469   1.068  0.0556 -0.0946 -0.1104
  111DSPC   C5B 1554   3.569   3.864   1.122 -0.2831 -0.1797 -0.3204
  112DSPC   NC3 1555   5.199   5.013   1.115  0.1678 -0.1131  0.1676
  112DSPC   PO4 1556   5.428   4.850   1.504 -0.3243  0.0480 -0.1508
  112DSPC   GL1 1557   4.991   4.791   1.508  0.1498  0.2603  0.3058
  112DSPC   GL2 1558   4.899   4.557   1.272 -0.0775  0.0486 -0.2877
  112DSPC   C1A 1559   4.581   4.827   1.745 -0.1113  0.1495  0.0547
  112DSPC   C2A 1560   4.222   4.862   1.503 -0.3015 -0.1262 -0.2013
  112DSPC   C3A 1561   3.870   4.902   1.391  0.4581  0.3728 -0.0684
  112DSPC   C4A 1562   3.536   4.803   1.267 -0.1165  0.0449  0.1191
  112DSPC   C5A 1563   3.173   4.662   1.304 -0.0757 -0.0464 -0.3947
  112DSPC   C1B 1564   4.502   4.267   1.208 -0.0506 -0.4490 -0.1946
  112DSPC   C2B 1565   4.111   3.990   1.257 -0.0547 -0.4282  0.2410
  112DSPC   C3B 1566   3.874   3.798   1.624 -0.1675 -0.4297  0.3123
  112DSPC   C4B 1567   3.557   3.669   1.819 -0.1214  0.1162  0.1960
  112DSPC   C5B 1568   3.225   3.638   2.183  0.0711 -0.1493  0.2045
  113DSPC   NC3 1569   0.247   3.248   0.565  0.0151  0.3520  0.2866
  113DSPC   PO4 1570   0.197   2.864   0.399  0.1807  0.0329  0.3411
  113DSPC   GL1 1571   0.553   3.004   0.280 -0.2339  0.3191 -0.0989
  113DSPC   GL2 1572   0.687   2.902   0.603 -0.2419 -0.1968 -0.1478
  113DSPC   C1A 1573   0.838   3.340   0.229  0.0137  0.1619 -0.0536
  113DSPC   C2A 1574   1.288   3.281   0.327 -0.1203 -0.1929  0.3550
  113DSPC   C3A 1575   1.688   3.158   0.431  0.0003 -0.0364 -0.2775
  113DSPC   C4A 1576   1.987   3.140   0.746  0.0434 -0.1737 -0.2125
  113DSPC   C5A 1577   2.028   3.348   1.187 -0.3161  0.2840  0.0469
  113DSPC   C1B 1578   1.037   3.226   0.749  0.0637 -0.2763 -0.1498
  113DSPC   C2B 1579   1.110   3.419   1.116  0.2425 -0.1553 -0.0894
  113DSPC   C3B 1580   1.319   3.568   1.428 -0.1113 -0.2066  0.0158
  113DSPC   C4B 1581   1.408   3.758   1.815 -0.0029  0.0411  0.3320
  113DSPC   C5B 1582   1.747   3.885   1.978  0.1150  0.2609 -0.1167
  114DSPC   NC3 1583   0.187   3.441   4.425  0.2868 -0.2068  0.0692
  114DSPC   PO4 1584   0.327   3.806   4.596  0.5257 -0.0390  0.2324
  114DSPC   GL1 1585   0.608   3.617   4.455 -0.0575 -0.1554  0.0148
  114DSPC   GL2 1586   0.682   3.355   4.473  0.0138  0.2919 -0.1490
  114DSPC   C1A 1587   1.013   3.783   4.477  0.1045  0.2104 -0.0040
  114DSPC   C2A 1588   1.291   3.666   4.761 -0.5449 -0.3108 -0.2842
  114DSPC   C3A 1589   1.707   3.471   4.789 -0.0619 -0.2172 -0.3299
  114DSPC   C4A 1590   2.049   3.399   5.024 -0.0577 -0.0303  0.0757
  114DSPC   C5A 1591   1.918   3.294   5.463  0.1846  0.0715  0.0191
  114DSPC   C1B 1592   1.130   3.382   4.261 -0.2785  0.0627 -0.0163
  114DSPC   C2B 1593   1.578   3.371   4.339 -0.0504 -0.0881 -0.0302
  114DSPC   C3B 1594   1.883   3.202   3.979  0.2292  0.0172  0.0068
  114DSPC   C4B 1595   2.148   3.155   3.645  0.2656  0.1359 -0.0304
  114DSPC   C5B 1596   2.434   2.805   3.590 -0.3523 -0.2564  0.1381
  115DSPC   NC3 1597   4.974   3.978   1.038 -0.3220 -0.4829  0.0972
  115DSPC   PO4 1598   5.189   4.016   1.433  0.2587 -0.3446 -0.1295
  115DSPC   GL1 1599   4.724   3.819   1.448  0.2447  0.0687  0.2247
  115DSPC   GL2 1600   4.573   3.640   1.116 -0.0461 -0.0287 -0.0387
  115DSPC   C1A 1601   4.335   3.621   1.538 -0.1526 -0.1023  0.2334
  115DSPC   C2A 1602   4.247   3.160   1.413 -0.0685 -0.4081 -0.0202
  115DSPC   C3A 1603   4.021   2.811   1.685 -0.1668 -0.0391 -0.0274
  115DSPC   C4A 1604   3.804   2.702   2.037 -0.2037 -0.1284 -0.0002
  115DSPC   C5A 1605   3.645   2.854   2.457  0.0784 -0.1379 -0.1118
  115DSPC   C1B 1606   4.165   3.606   0.907  0.1071 -0.1610 -0.3079
  115DSPC   C2B 1607   3.732   3.455   0.729 -0.1284  0.0847  0.5122
  115DSPC   C3B 1608   3.312   3.607   0.618  0.0002 -0.0045 -0.1020
  115DSPC   C4B 1609   2.817   3.739   0.501  0.0736  0.1306 -0.1763
  115DSPC   C5B 1610   2.489   4.021   0.315  0.0486  0.0950 -0.0992
  116DSPC   NC3 1611   4.729   5.677   4.958 -0.0690  0.1366  0.1234
  116DSPC   PO4 1612   4.852   5.688   5.424 -0.1303  0.1294 -0.3073
  116DSPC   GL1 1613   4.399   5.564   5.249  0.1062 -0.2168 -0.2196
  116DSPC   GL2 1614   4.201   5.813   4.963 -0.2089  0.1702 -0.1186
  116DSPC   C1A 1615   3.967   5.408   5.396  0.0421 -0.5261  0.2797
  116DSPC   C2A 1616   3.493   5.514   5.446  0.0551 -0.0719  0.3042
  116DSPC   C3A 1617   3.195   5.511   5.664 -0.0428  0.1567  0.0361
  116DSPC   C4A 1618   2.804   5.412   5.564  0.0384 -0.1810  0.0550
  116DSPC   C5A 1619   2.512   5.049   5.701 -0.0015  0.2819  0.1104
  116DSPC   C1B 1620   3.909   6.101   5.100  0.0152 -0.0288 -0.0498
  116DSPC   C2B 1621   3.581   6.385   5.152 -0.3075 -0.1556  0.0377
  116DSPC   C3B 1622   3.171   6.337   4.908 -0.0819 -0.2679 -0.1390
  116DSPC   C4B 1623   2.930   6.636   4.792  0.0784 -0.1726  0.2757
  116DSPC   C5B 1624   2.554   6.845   4.666 -0.0981 -0.3474 -0.0774
  117DSPC   NC3 1625   7.546   2.688   0.033 -0.0495  0.0062  0.1539
  117DSPC   PO4 1626   7.975   2.600  -0.004 -0.0081 -0.1144 -0.0078
  117DSPC   GL1 1627   8.247   2.294  -0.070  0.1236  0.0465  0.0357
  117DSPC   GL2 1628   8.432   2.257  -0.388  0.0474 -0.1601  0.1413
  117DSPC   C1A 1629   8.477   2.027   0.117  0.1003  0.0530 -0.0001
  117DSPC   C2A 1630   8.892   1.777   0.302  0.2085 -0.2246  0.1930
  117DSPC   C3A 1631   9.123   1.434   0.213 -0.1012  0.1177 -0.2038
  117DSPC   C4A 1632   9.506   1.175   0.109 -0.0120  0.1557  0.0528
  117DSPC   C5A 1633   9.792   0.752   0.020  0.2521 -0.0373  0.0159
  117DSPC   C1B 1634   8.884   2.269  -0.179 -0.2538  0.1000  0.0942
  117DSPC   C2B 1635   9.018   2.385   0.254 -0.1603  0.3405 -0.0937
  117DSPC   C3B 1636   9.415   2.529   0.445 -0.0712  0.0394 -0.2297
  117DSPC   C4B 1637   9.911   2.703   0.458  0.1573 -0.0925 -0.2447
  117DSPC   C5B 1638  10.403   2.829   0.643  0.1409 -0.0682 -0.3481
  118DSPC   NC3 1639   5.048   2.210   2.518  0.4893 -0.0337  0.0027
  118DSPC   PO4 1640   5.043   2.404   2.975 -0.1954 -0.1799 -0.3017
  118DSPC   GL1 1641   4.547   2.381   2.892 -0.0869  0.1321  0.0969
  118DSPC   GL2 1642   4.437   2.602   3.028  0.1762 -0.0317 -0.3968
  118DSPC   C1A 1643   4.255   2.295   2.533  0.0944  0.0689  0.3953
  118DSPC   C2A 1644   3.813   2.336   2.329 -0.1908  0.0855  0.3441
  118DSPC   C3A 1645   3.429   2.393   2.228  0.1640  0.0004 -0.0025
  118DSPC   C4A 1646   2.946   2.545   2.107 -0.0579  0.4366 -0.2476
  118DSPC   C5A 1647   2.534   2.765   2.074  0.0905  0.1865 -0.0949
  118DSPC   C1B 1648   4.205   2.335   3.323  0.0870 -0.0459 -0.1153
  118DSPC   C2B 1649   3.821   2.441   3.360  0.2560  0.1059 -0.1771
  118DSPC   C3B 1650   3.328   2.413   3.285  0.1442 -0.0864 -0.1914
  118DSPC   C4B 1651   3.008   2.205   3.414 -0.1632  0.1353  0.1542
  118DSPC   C5B 1652   2.586   2.315   3.417  0.0859  0.1297 -0.1552
  119DSPC   NC3 1653   4.482   2.565   0.175  0.0405  0.4124  0.5353
  119DSPC   PO4 1654   4.878   2.358   0.566  0.2359 -0.3876  0.0521
  119DSPC   GL1 1655   4.573   2.143   0.921  0.0782  0.3062 -0.1149
  119DSPC   GL2 1656   4.412   1.796   0.726  0.3608  0.0917  0.0416
  119DSPC   C1A 1657   4.212   2.084   1.198 -0.2805 -0.0169  0.0005
  119DSPC   C2A 1658   3.773   2.147   1.315  0.0596 -0.0822  0.0435
  119DSPC   C3A 1659   3.365   1.914   1.191  0.0039 -0.0919  0.1406
  119DSPC   C4A 1660   2.837   1.994   1.344  0.0882 -0.1522  0.2105
  119DSPC   C5A 1661   2.376   2.083   1.326  0.0796 -0.1516  0.2974
  119DSPC   C1B 1662   4.057   1.956   0.798 -0.1640 -0.1832 -0.0324
  119DSPC   C2B 1663   3.775   2.318   0.841 -0.3131  0.0156 -0.0625
  119DSPC   C3B 1664   3.419   2.335   0.895  0.5139  0.0033  0.0279
  119DSPC   C4B 1665   3.074   2.664   1.000 -0.4731  0.1248 -0.0468
  119DSPC   C5B 1666   2.861   2.992   1.240 -0.0673 -0.1957  0.1217
  120DSPC   NC3 1667   7.290   7.036   1.241 -0.1669 -0.1302 -0.2249
  120DSPC   PO4 1668   7.377   7.361   0.923  0.2627 -0.1064 -0.3025
  120DSPC   GL1 1669   7.735   7.374   0.928  0.0449  0.4788  0.3945
  120DSPC   GL2 1670   7.814   7.454   1.253  0.1636  0.1560  0.1198
  120DSPC   C1A 1671   8.084   7.335   0.815 -0.0856 -0.2939 -0.0517
  120DSPC   C2A 1672   8.486   7.500   0.792 -0.0864  0.0172 -0.0266
  120DSPC   C3A 1673   8.950   7.586   0.768  0.3532  0.2298  0.0257
  120DSPC   C4A 1674   9.448   7.613   0.738 -0.0118 -0.2218  0.1786
  120DSPC   C5A 1675   9.811   7.851   0.816  0.0160 -0.1550  0.0205
  120DSPC   C1B 1676   8.073   7.772   1.156 -0.2947 -0.4172  0.3538
  120DSPC   C2B 1677   8.556   7.838   1.194  0.2236  0.1406 -0.0237
  120DSPC   C3B 1678   8.887   7.990   1.392 -0.3097  0.4005 -0.2109
  120DSPC   C4B 1679   8.979   7.886   1.755 -0.0057 -0.0206 -0.1002
  120DSPC   C5B 1680   9.145   7.969   2.186 -0.0607  0.1209 -0.0006
  121DSPC   NC3 1681   7.527   5.146   2.462  0.2583 -0.0246 -0.0815
  121DSPC   PO4 1682   8.013   5.254   2.371  0.0298  0.1280  0.0752
  121DSPC   GL1 1683   8.442   5.276   2.613 -0.0477  0.0728  0.1121
  121DSPC   GL2 1684   8.694   5.340   2.395 -0.0670 -0.0643  0.0848
  121DSPC   C1A 1685   8.717   5.262   2.999  0.1386 -0.1281 -0.1920
  121DSPC   C2A 1686   8.995   5.353   3.159  0.1420  0.1695  0.2822
  121DSPC   C3A 1687   9.299   5.588   3.087  0.0808  0.2067  0.2077
  121DSPC   C4A 1688   9.560   5.756   2.749 -0.2381 -0.3848  0.0029
  121DSPC   C5A 1689   9.739   6.198   2.646  0.0890 -0.0029  0.0055
  121DSPC   C1B 1690   9.011   5.430   2.183  0.4363 -0.0799  0.2827
  121DSPC   C2B 1691   9.289   5.409   1.809  0.1355  0.1509 -0.2322
  121DSPC   C3B 1692   9.078   5.311   1.389 -0.0260  0.1229 -0.1223
  121DSPC   C4B 1693   8.752   5.161   1.454  0.0868  0.0559  0.0160
  121DSPC   C5B 1694   8.401   5.088   1.465 -0.2161  0.5353  0.0063
  122DSPC   NC3 1695   4.886   5.851   4.016  0.1041  0.1688 -0.0954
  122DSPC   PO4 1696   4.800   5.807   4.467  0.1133 -0.1216 -0.0934
  122DSPC   GL1 1697   4.401   5.994   4.505  0.3473 -0.0116  0.0903
  122DSPC   GL2 1698   4.450   6.104   4.125 -0.0879 -0.0797 -0.0662
  122DSPC   C1A 1699   4.019   5.953   4.508  0.0503 -0.2530 -0.1713
  122DSPC   C2A 1700   3.655   6.058   4.220  0.0903  0.0157 -0.1213
  122DSPC   C3A 1701   3.294   5.804   4.159 -0.2579 -0.0060  0.0496
  122DSPC   C4A 1702   2.973   6.043   4.090  0.1032 -0.0191 -0.0311
  122DSPC   C5A 1703   3.201   6.371   4.184  0.0618 -0.0717 -0.2535
  122DSPC   C1B 1704   4.101   6.025   3.824  0.3502  0.0470  0.0508
  122DSPC   C2B 1705   3.605   6.012   3.716 -0.1705  0.0123  0.1458
  122DSPC   C3B 1706   3.154   5.759   3.580 -0.1808 -0.2112 -0.0279
  122DSPC   C4B 1707   2.808   5.641   3.375  0.1423  0.3963  0.1118
  122DSPC   C5B 1708   2.435   5.393   3.473  0.1312 -0.0544 -0.3744
  123DSPC   NC3 1709   4.680   3.722   2.641 -0.1848 -0.1228  0.1665
  123DSPC   PO4 1710   4.748   4.145   2.956 -0.0565  0.1808  0.0697
  123DSPC   GL1 1711   4.361   4.428   2.736  0.2679 -0.1500 -0.3384
  123DSPC   GL2 1712   4.395   4.747   2.771  0.2828  0.0393 -0.0573
  123DSPC   C1A 1713   3.948   4.323   2.445 -0.3934  0.0845 -0.1548
  123DSPC   C2A 1714   3.542   4.475   2.253  0.3036 -0.0575  0.3023
  123DSPC   C3A 1715   3.063   4.590   2.300  0.0401 -0.0617  0.2353
  123DSPC   C4A 1716   2.811   4.457   2.571 -0.3289  0.0960 -0.0140
  123DSPC   C5A 1717   2.687   4.556   2.874 -0.4377  0.1533  0.0294
  123DSPC   C1B 1718   4.154   5.096   2.895 -0.0048 -0.0032  0.1772
  123DSPC   C2B 1719   3.657   5.231   2.852  0.3797 -0.3429 -0.1780
  123DSPC   C3B 1720   3.201   5.331   2.701  0.0783 -0.1453 -0.3218
  123DSPC   C4B 1721   2.845   5.456   2.436  0.0215 -0.0035 -0.1190
  123DSPC   C5B 1722   2.718   5.619   2.065 -0.0415 -0.5058  0.2133
  124DSPC   NC3 1723   0.291   2.182   4.590  0.1134  0.0117 -0.0096
  124DSPC   PO4 1724   0.081   2.462   4.085 -0.0955  0.0143  0.0408
  124DSPC   GL1 1725   0.487   2.292   4.186 -0.2042 -0.1000 -0.3566
  124DSPC   GL2 1726   0.700   2.361   3.998 -0.1431  0.1187  0.3702
  124DSPC   C1A 1727   0.757   2.415   4.526 -0.2218  0.2132  0.1351
  124DSPC   C2A 1728   1.262   2.362   4.295 -0.0195  0.1234  0.0840
  124DSPC   C3A 1729   1.630   2.140   4.141  0.4182 -0.2706 -0.1855
  124DSPC   C4A 1730   1.977   1.867   3.950 -0.1940  0.2194  0.1442
  124DSPC   C5A 1731   2.051   1.603   3.531 -0.1165 -0.5688  0.0296
  124DSPC   C1B 1732   1.179   2.456   3.840  0.0056  0.0250  0.0894
  124DSPC   C2B 1733   1.654   2.705   4.002  0.4454  0.1196 -0.0268
  124DSPC   C3B 1734   1.838   2.493   4.410 -0.3729 -0.3933 -0.1687
  124DSPC   C4B 1735   2.146   2.148   4.426  0.2262 -0.2879  0.0481
  124DSPC   C5B 1736   2.273   1.729   4.331  0.0410 -0.2662 -0.2373
  125DSPC   NC3 1737   7.222   3.789   1.694  0.1119  0.0721  0.2837
  125DSPC   PO4 1738   7.638   3.640   1.725  0.2515 -0.3524  0.1352
  125DSPC   GL1 1739   8.121   3.626   1.644  0.2623  0.1027 -0.8300
  125DSPC   GL2 1740   8.297   3.549   1.461  0.0129  0.0827 -0.1833
  125DSPC   C1A 1741   8.514   3.779   1.945 -0.0333  0.0898  0.1616
  125DSPC   C2A 1742   8.846   4.124   2.014  0.3722  0.1609 -0.4009
  125DSPC   C3A 1743   8.869   4.592   2.059  0.0311  0.1337 -0.4309
  125DSPC   C4A 1744   9.181   4.941   1.913 -0.0414 -0.0796 -0.3955
  125DSPC   C5A 1745   9.573   5.006   1.807 -0.2309 -0.0633  0.0541
  125DSPC   C1B 1746   8.600   3.355   1.713 -0.0020 -0.1907 -0.1458
  125DSPC   C2B 1747   9.037   3.256   1.820  0.1410 -0.1403 -0.1629
  125DSPC   C3B 1748   9.364   3.474   1.593 -0.3483  0.0674 -0.2736
  125DSPC   C4B 1749   9.750   3.658   1.667  0.3518  0.0405 -0.0782
  125DSPC   C5B 1750  10.120   3.983   1.620  0.2815 -0.1925  0.2142
  126DSPC   NC3 1751   0.378   2.162   3.280 -0.0391 -0.0288  0.0981
  126DSPC   PO4 1752   0.243   2.367   2.910  0.1926 -0.0262  0.0319
  126DSPC   GL1 1753   0.732   2.241   2.921  0.1952 -0.4618  0.1811
  126DSPC   GL2 1754   0.868   2.230   3.139 -0.0627  0.1477 -0.2677
  126DSPC   C1A 1755   1.265   2.110   2.809 -0.0555 -0.0686 -0.3885
  126DSPC   C2A 1756   1.636   2.425   2.928 -0.1397  0.1287 -0.0431
  126DSPC   C3A 1757   1.939   2.513   2.778  0.0946 -0.0872 -0.3260
  126DSPC   C4A 1758   2.388   2.547   2.543 -0.2128 -0.1416  0.1338
  126DSPC   C5A 1759   2.674   2.271   2.368  0.0241 -0.1356 -0.0227
  126DSPC   C1B 1760   1.268   2.389   3.299  0.1498 -0.0088  0.0860
  126DSPC   C2B 1761   1.666   2.344   3.577  0.2056  0.0653 -0.3589
  126DSPC   C3B 1762   2.106   2.435   3.755  0.2015  0.0120  0.3153
  126DSPC   C4B 1763   2.164   2.710   4.085 -0.1273  0.2489  0.1251
  126DSPC   C5B 1764   2.334   3.184   4.148 -0.1243  0.3843 -0.0860
  127DSPC   NC3 1765   4.923   5.027   4.865 -0.0160 -0.0376 -0.1179
  127DSPC   PO4 1766   4.717   5.212   5.094  0.0437 -0.1049  0.0714
  127DSPC   GL1 1767   4.398   5.229   4.894  0.0327  0.2459 -0.1560
  127DSPC   GL2 1768   4.390   5.517   4.556  0.0240  0.0261  0.1981
  127DSPC   C1A 1769   3.990   5.350   4.901  0.2543 -0.1287  0.0779
  127DSPC   C2A 1770   3.699   5.669   4.909  0.0262  0.0269  0.0073
  127DSPC   C3A 1771   3.379   5.898   4.764  0.2068 -0.1328  0.0781
  127DSPC   C4A 1772   3.026   6.052   4.571 -0.0163 -0.3297  0.1818
  127DSPC   C5A 1773   2.568   6.194   4.639 -0.3438 -0.0603  0.1699
  127DSPC   C1B 1774   4.030   5.385   4.274 -0.2086  0.2476 -0.0729
  127DSPC   C2B 1775   3.732   5.510   4.309  0.2822 -0.1198  0.0379
  127DSPC   C3B 1776   3.412   5.420   4.582  0.1314  0.0340  0.0119
  127DSPC   C4B 1777   2.949   5.163   4.693  0.2387 -0.0225 -0.1076
  127DSPC   C5B 1778   2.710   4.783   4.886 -0.1025 -0.0495  0.0125
  128DSPC   NC3 1779   4.775   0.398   4.604 -0.1605 -0.3775  0.1313
  128DSPC   PO4 1780   4.985   0.660   4.255 -0.2672  0.0826 -0.0374
  128DSPC   GL1 1781   4.535   0.558   4.291  0.3185  0.0496  0.0293
  128DSPC   GL2 1782   4.248   0.759   4.305  0.0408 -0.0411 -0.1590
  128DSPC   C1A 1783   4.122   0.285   4.112 -0.0064 -0.0417  0.3351
  128DSPC   C2A 1784   3.671   0.321   4.239  0.1625 -0.2160  0.2017
  128DSPC   C3A 1785   3.177   0.091   4.293  0.2662 -0.1371  0.2480
  128DSPC   C4A 1786   2.641   0.389   4.427 -0.0341  0.1364 -0.1603
  128DSPC   C5A 1787   2.329   0.796   4.399 -0.1732 -0.1389  0.1327
  128DSPC   C1B 1788   3.876   0.805   4.114  0.1070  0.0209 -0.0715
  128DSPC   C2B 1789   3.476   0.915   4.013  0.1856 -0.0221  0.2801
  128DSPC   C3B 1790   3.037   1.253   3.994  0.3588 -0.1615  0.0460
  128DSPC   C4B 1791   2.713   1.340   4.334 -0.1179  0.1650 -0.1832
  128DSPC   C5B 1792   2.229   1.255   4.521 -0.0101 -0.5410 -0.1336
  129W        W 1793   6.541   4.805   4.922 -0.0854  0.3900  0.3527
  130W        W 1794   4.601   7.019   5.170  0.3359 -0.0627  0.0313
  131W        W 1795   5.599   5.318   1.221  0.2056 -0.1030  0.0664
  132W        W 1796   0.117   0.487   3.826  0.1483  0.1316 -0.0138
  133W        W 1797   6.684   5.447   0.215 -0.3226  0.0046 -0.3509
  134W        W 1798   7.374   2.572   2.780  0.0878  0.0408  0.1542
  135W        W 1799   5.095   1.430   3.334  0.0724  0.1491  0.1349
  136W        W 1800   5.913   1.416   3.942 -0.1495  0.1782  0.0863
  137W        W 1801   7.350   3.583   4.501 -0.4114  0.0976  0.1158
  138W        W 1802   6.931   2.900   0.729 -0.4203 -0.1990  0.1902
  139W        W 1803   7.581   7.305   3.677  0.0767 -0.1723 -0.0655
  140W        W 1804   6.099   7.517   0.635  0.1225 -0.1967  0.1341
  141W        W 1805   6.772   3.063   4.686 -0.1010 -0.1445 -0.0249
  142W        W 1806   7.000   0.317   3.129  0.0438 -0.1631  0.0496
  143W        W 1807   7.002   7.583   0.392  0.1318 -0.1975 -0.2087
  144W        W 1808   6.367   4.191   2.423  0.1047  0.0296  0.3067
  145W        W 1809   7.134   4.485   3.068 -0.0109  0.2670  0.2487
  146W        W 1810   6.479   4.881   1.900 -0.0007 -0.1948  0.1290
  147W        W 1811   6.158   0.213   3.468  0.4909  0.1881 -0.2540
  148W        W 1812   5.434   1.635   1.401 -0.2146 -0.0126  0.0072
  149W        W 1813   6.866   6.660   5.198 -0.2031 -0.0943 -0.1032
  150W        W 1814   6.748   4.817   1.293  0.0073  0.1827  0.1027
  151W        W 1815   4.892   7.278   0.489  0.3340  0.2751  0.0422
  152W        W 1816   5.730   6.371   4.139  0.1621  0.2943  0.1293
  153W        W 1817   7.594   4.985   1.973 -0.2078 -0.0853 -0.1309
  154W        W 1818   6.905   2.838   2.535  0.1552 -0.0457  0.0383
  155W        W 1819   7.372   6.820   3.822  0.0422 -0.5441 -0.2461
  156W        W 1820   5.723   6.729   3.328  0.2022 -0.1931 -0.1809
  157W        W 1821   5.900   0.446   3.091  0.1046 -0.3350  0.0851
  158W        W 1822   6.017   5.618   4.987  0.0988  0.0381 -0.0102
  159W        W 1823   5.885   7.206   3.513  0.1273 -0.0435  0.1498
  160W        W 1824   7.080   0.323   0.011 -0.0551 -0.0201 -0.0210
  161W        W 1825   5.661   5.255   1.734  0.1065  0.2255 -0.2309
  162W        W 1826   6.042   5.025   2.135 -0.1797  0.1302  0.0584
  163W        W 1827   5.102   0.750   4.760  0.1156  0.1381 -0.3573
  164W        W 1828   6.845   3.981   2.998  0.0801 -0.1689  0.0862
  165W        W 1829   5.989   3.032   1.054 -0.1358  0.2009  0.0986
  166W        W 1830   4.622   5.565   2.627  0.1952 -0.0912  0.0828
  167W        W 1831   5.548   6.528   2.102 -0.2392  0.3748 -0.0590
  168W        W 1832   5.706   1.257   3.412 -0.5433 -0.1088  0.3171
  169W        W 1833   6.893   2.088   1.955  0.2382 -0.4158  0.0527
  170W        W 1834   7.386   7.610   3.169 -0.0544 -0.0746  0.3236
  171W        W 1835   6.293   1.055   1.551  0.0660 -0.2972 -0.1793
  172W        W 1836   7.265   4.213   4.324  0.4183  0.1237 -0.2292
  173W        W 1837   0.026   3.750   5.310  0.0360 -0.3376 -0.2510
  174W        W 1838   5.399   0.702   3.066 -0.0148  0.0414  0.1095
  175W        W 1839   0.415   6.321   3.405  0.1675  0.0077  0.1800
  176W        W 1840   0.833   4.243   1.761  0.3175  0.2127  0.1897
  177W        W 1841   5.972   3.457   3.053  0.2073  0.3392  0.2331
  178W        W 1842   7.131   0.040   4.367 -0.0355  0.1031  0.2963
  179W        W 1843   6.815   5.523   3.699 -0.1869 -0.0958 -0.2128
  180W        W 1844   5.775   6.104   3.616 -0.1228 -0.2698  0.1894
  181W        W 1845   6.014   3.744   1.117  0.0064  0.0460  0.4440
  182W        W 1846   0.618   1.812   3.935 -0.2064  0.2213  0.2422
  183W        W 1847   0.621   3.276   0.942  0.0828  0.0085 -0.0616
  184W        W 1848   5.058   7.276   2.915 -0.0325  0.0562 -0.2104
  185W        W 1849   6.029   5.007   3.575 -0.0453  0.0712 -0.0797
  186W        W 1850   6.504   5.557   1.365  0.0653  0.2335 -0.0156
  187W        W 1851   5.058   3.811   5.144  0.4366  0.1004  0.1746
  188W        W 1852   6.533   0.016   4.817 -0.3852 -0.1112  0.1709
  189W        W 1853   6.036   4.081   2.815 -0.0239 -0.1068 -0.0707
  190W        W 1854   7.535   1.066   5.419  0.1067 -0.0760 -0.2239
  191W        W 1855   7.087   6.019   3.500 -0.0891  0.3549 -0.2594
  192W        W 1856   6.088   2.366   2.402 -0.3408 -0.3014  0.0934
  193W        W 1857   0.055   1.803   4.811 -0.1476 -0.0373 -0.3915
  194W        W 1858   6.706   0.309   1.895 -0.2025 -0.0234 -0.0083
  195W        W 1859   6.010   3.515   5.065 -0.1044  0.0418 -0.0471
  196W        W 1860   5.505   7.431   2.705  0.0654 -0.0125 -0.1961
  197W        W 1861   7.555   5.801   3.501 -0.1225  0.2057  0.0312
  198W        W 1862   6.750   7.492   3.910 -0.2878 -0.0073  0.0643
  199W        W 1863   5.219   0.784   0.272  0.0756  0.2753  0.0499
  200W        W 1864   6.269   3.307   2.009 -0.0914  0.0131  0.1291
  201W        W 1865   6.504   6.895   1.777 -0.2837  0.0807 -0.2598
  202W        W 1866   7.589   3.340   3.043 -0.4005 -0.1670 -0.0414
  203W        W 1867   5.326   1.205   1.647  0.0454 -0.0613 -0.2906
  204W        W 1868   5.394   7.219   4.599 -0.0406 -0.2285  0.2801
  205W        W 1869   0.360   3.095   3.438  0.3466 -0.1179 -0.0292
  206W        W 1870   6.414   2.378   5.142 -0.1547 -0.3633 -0.0470
  207W        W 1871   6.646   0.053   2.894 -0.1543  0.3068  0.1532
  208W        W 1872   4.755   6.026   0.389  0.1083 -0.1928  0.0505
  209W        W 1873   6.480   3.598   2.926 -0.1134  0.1273  0.0840
  210W        W 1874   5.084   1.661   1.924  0.0290  0.0631  0.0705
  211W        W 1875   6.746   2.506   0.875  0.0444 -0.1122  0.3514
  212W        W 1876   6.736   3.502   1.349 -0.2138  0.2499 -0.1950
  213W        W 1877   5.999   0.879   4.238  0.1919  0.0902  0.2950
  214W        W 1878   6.564   5.021   0.475 -0.1601  0.0268 -0.2768
  215W        W 1879   7.528   2.690   0.775  0.0772  0.0247 -0.2209
  216W        W 1880   6.524   2.727   3.827 -0.1206  0.1534 -0.1638
  217W        W 1881   5.390   4.355   5.193  0.0890 -0.3163 -0.0000
  218W        W 1882   5.487   5.510   3.222 -0.1834  0.1997 -0.0081
  219W        W 1883   5.815   0.505   1.767  0.2348 -0.1226 -0.0256
  220W        W 1884   5.661   3.780   3.770  0.1283 -0.0515 -0.4057
  221W        W 1885   6.515   6.639   3.182 -0.0890 -0.1655 -0.0670
  222W        W 1886   6.915   2.689   3.112 -0.2085  0.1672  0.0611
  223W        W 1887   5.336   0.724   5.223 -0.3112 -0.4320  0.2690
  224W        W 1888   5.289   6.261   3.763  0.1742  0.0159 -0.1458
  225W        W 1889   6.154   4.570   2.733 -0.2438  0.1837 -0.2522
  226W        W 1890   7.383   4.724   2.671 -0.1567 -0.2545 -0.2925
  227W        W 1891   5.319   6.861   2.517  0.0076  0.0022 -0.0458
  228W        W 1892   5.182   2.691   2.589 -0.1156 -0.1562  0.0294
  229W        W 1893   6.121   5.376   2.734 -0.3045 -0.3083  0.0662
  230W        W 1894   7.270   3.738   2.976 -0.0762  0.1943 -0.1940
  231W        W 1895   5.917   2.147   0.828 -0.1487  0.1105 -0.0304
  232W        W 1896   7.030   2.648   3.762 -0.1484 -0.2185 -0.0941
  233W        W 1897   7.091   1.666   2.698  0.1369 -0.0012  0.0318
  234W        W 1898   6.453   6.065   2.152  0.2820  0.2430  0.0074
  235W        W 1899   0.242   5.971   1.000  0.1269  0.4097 -0.0826
  236W        W 1900   6.417   2.564   2.075 -0.2351 -0.1427 -0.2105
  237W        W 1901   0.768   3.911   4.828 -0.0629  0.3374  0.5243
  238W        W 1902   6.175   0.082   2.822  0.2804 -0.1963 -0.1033
  239W        W 1903   6.306   6.387   0.071 -0.3471  0.1044 -0.2694
  240W        W 1904   5.072   0.264   3.682 -0.3603 -0.3029  0.0411
  241W        W 1905   5.705   0.953   1.468  0.1065  0.3181  0.1098
  242W        W 1906   7.494   1.476   1.323  0.0097 -0.0182 -0.0307
  243W        W 1907   5.801   3.295   5.421  0.3931  0.0650  0.0905
  244W        W 1908   6.712   3.983   1.625  0.0029 -0.3412  0.1273
  245W        W 1909   5.510   4.232   3.919 -0.2042 -0.0725  0.3262
  246W        W 1910   7.039   3.850   1.129  0.0275  0.2241 -0.1127
  247W        W 1911   6.140   2.314   4.340 -0.1933 -0.4272 -0.1544
  248W        W 1912   4.951   2.402   5.422  0.2342 -0.1959  0.2655
  249W        W 1913   7.430   2.551   1.255  0.0040 -0.1249  0.0427
  250W        W 1914   6.170   5.839   2.549  0.2946  0.2718 -0.3676
  251W        W 1915   5.959   1.300   4.502  0.0277 -0.1860  0.1784
  252W        W 1916   5.567   4.208   0.233  0.0434  0.2430  0.3016
  253W        W 1917   4.630   6.094   3.579 -0.0580  0.1461 -0.2315
  254W        W 1918   7.306   6.153   4.442  0.2438 -0.1132  0.4580
  255W        W 1919   5.964   6.289   0.581 -0.1079  0.1544 -0.3689
  256W        W 1920   7.482   0.065   2.623  0.0400  0.0503  0.0405
  257W        W 1921   5.095   7.603   4.625  0.0953 -0.0620 -0.1068
  258W        W 1922   4.861   4.833   4.268  0.2605  0.2724  0.1757
  259W        W 1923   7.044   5.543   4.847  0.0419  0.1703  0.0018
  260W        W 1924   6.123   5.332   1.753  0.0916  0.1032  0.2582
  261W        W 1925   7.327   4.723   1.576  0.2922  0.1787  0.4618
  262W        W 1926   6.986   4.860   0.138 -0.0925 -0.1731  0.0352
  263W        W 1927   4.971   4.058   2.475  0.0104 -0.2381  0.0729
  264W        W 1928   7.522   2.043   4.250 -0.2117  0.0880  0.2896
  265W        W 1929   6.806   2.005   1.452  0.3064  0.3022 -0.1018
  266W        W 1930   4.930   2.046   3.963  0.1602 -0.0384  0.1070
  267W        W 1931   6.763   0.555   2.756 -0.2543 -0.2702 -0.2301
  268W        W 1932   6.228   3.147   4.736 -0.1447 -0.0225 -0.1314
  269W        W 1933   0.070   7.116   4.136  0.2588  0.0807  0.0926
  270W        W 1934   7.600   2.918   3.728 -0.0010 -0.0316  0.2215
  271W        W 1935   5.810   4.276   4.301 -0.0953 -0.0227 -0.2586
  272W        W 1936   0.404   5.047   1.189 -0.0201 -0.1549  0.0242
  273W        W 1937   5.299   3.550   1.746 -0.1448  0.1854 -0.2224
  274W        W 1938   5.416   5.247   2.722 -0.1017  0.1443 -0.0466
  275W        W 1939   0.111   2.859   2.939  0.1854  0.0833  0.1997
  276W        W 1940   6.457   2.200   0.582 -0.0014  0.1242  0.0046
  277W        W 1941   0.296   0.426   4.308 -0.1950  0.1755 -0.1822
  278W        W 1942   0.145   5.501   1.151 -0.0327 -0.3208  0.1082
  279W        W 1943   6.319   4.392   4.158 -0.0683 -0.1847  0.2872
  280W        W 1944   6.706   3.002   3.442 -0.3118 -0.0332 -0.1333
  281W        W 1945   0.031   6.501   4.227  0.2327  0.0911 -0.2359
  282W        W 1946   5.719   6.765   2.805  0.1474  0.5308 -0.0516
  283W        W 1947   0.098   3.141   2.025  0.2218  0.2376  0.3834
  284W        W 1948   7.024   7.029   0.741 -0.1618 -0.0152  0.0034
  285W        W 1949   7.001   5.109   3.927  0.2648  0.1960 -0.0565
  286W        W 1950   7.478   5.502   4.202 -0.0429 -0.3294  0.2060
  287W        W 1951   6.594   3.232   0.467  0.4067  0.2503  0.2718
  288W        W 1952   6.308   3.836   5.276  0.0859 -0.0099  0.2990
  289W        W 1953   7.230   3.156   3.504 -0.0055 -0.1106  0.1053
  290W        W 1954   6.326   5.479   2.194 -0.1429  0.1289  0.0159
  291W        W 1955   0.397   4.742   4.455 -0.0037  0.0923  0.1294
  292W        W 1956   7.621   1.053   2.054  0.0557  0.1735 -0.2965
  293W        W 1957   0.133   3.673   2.578  0.0830 -0.2696 -0.0965
  294W        W 1958   6.587   4.540   0.410 -0.1722 -0.3110  0.0106
  295W        W 1959   7.501   2.149   0.841  0.0722 -0.1372  0.1394
  296W        W 1960   7.213   0.439   2.373  0.1723 -0.3576  0.1059
  297W        W 1961   7.587   6.347   3.700 -0.2157  0.0693 -0.0222
  298W        W 1962   6.620   0.041   3.437  0.0899 -0.0306 -0.0910
  299W        W 1963   6.838   3.949   5.132  0.2457 -0.2662 -0.3278
  300W        W 1964   6.179   2.098   1.999 -0.1757 -0.1558  0.4616
  301W        W 1965   6.743   6.100   0.780 -0.0307  0.3483  0.1554
  302W        W 1966   5.140   3.256   3.078  0.0585  0.0714 -0.0898
  303W        W 1967   4.543   0.243   5.190  0.0737 -0.1913  0.0308
  304W        W 1968   5.406   6.991   3.604 -0.2411  0.2602 -0.0739
  305W        W 1969   6.207   5.949   0.326  0.1717 -0.0003 -0.3217
  306W        W 1970   5.965   4.193   5.081 -0.1413 -0.1569 -0.4599
  307W        W 1971   5.679   0.083   0.443 -0.3612  0.0136 -0.3448
  308W        W 1972   6.033   7.192   0.110 -0.1622 -0.0881  0.3142
  309W        W 1973   6.356   1.490   4.784  0.1878  0.3893 -0.1199
  310W        W 1974   6.509   7.433   2.016  0.1015 -0.1640 -0.0181
  311W        W 1975   5.293   2.961   5.336 -0.1143 -0.6114 -0.0363
  312W        W 1976   7.103   5.807   4.015  0.0695  0.3805  0.2984
  313W        W 1977   0.394   6.432   4.702  0.0781  0.0444 -0.0886
  314W        W 1978   0.060   4.622   1.112  0.2158  0.1126  0.1885
  315W        W 1979   4.812   3.432   1.735 -0.0250  0.3367  0.0579
  316W        W 1980   5.971   3.669   4.140 -0.3384 -0.0278 -0.0168
  317W        W 1981   7.122   2.189   4.020  0.2160  0.3012 -0.1009
  318W        W 1982   4.443   4.825   4.549 -0.0172  0.1432  0.4471
  319W        W 1983   4.860   5.016   2.846  0.2519 -0.0783  0.0347
  320W        W 1984   7.130   6.144   1.127  0.0841 -0.0898 -0.1065
  321W        W 1985   5.688   3.735   0.285 -0.3624  0.1268 -0.1096
  322W        W 1986   4.982   4.279   4.010 -0.1503  0.0699 -0.1827
  323W        W 1987   4.839   2.223   4.895 -0.0021  0.2291  0.0555
  324W        W 1988   6.730   4.407   3.510 -0.1145  0.2464 -0.1168
  325W        W 1989   6.175   3.494   0.203 -0.2163 -0.0544  0.2961
  326W        W 1990   5.317   2.475   4.061  0.3559  0.1870 -0.0179
  327W        W 1991   5.961   4.568   0.132 -0.1679 -0.2711 -0.0543
  328W        W 1992   7.032   5.421   4.379 -0.0758 -0.3371  0.1687
  329W        W 1993   0.434   0.447   1.782  0.1686  0.0501  0.2468
  330W        W 1994   6.149   3.006   5.222 -0.1389 -0.2328  0.0913
  331W        W 1995   5.629   7.219   4.043  0.2061  0.0810 -0.1788
  332W        W 1996   5.575   5.016   0.741 -0.0442 -0.0498 -0.0187
  333W        W 1997   7.231   3.027   5.052  0.1261  0.1880 -0.0088
  334W        W 1998   5.353   0.349   4.412  0.0316 -0.2129 -0.1365
  335W        W 1999   7.087   1.635   1.777  0.2002 -0.0473 -0.0928
  336W        W 2000   6.628   0.452   1.037  0.1090 -0.3125 -0.1634
  337W        W 2001   5.050   7.134   1.792 -0.1033  0.0956 -0.1050
  338W        W 2002   6.001   2.475   2.996  0.0621 -0.2688 -0.2065
  339W        W 2003   7.376   5.875   0.785 -0.1946 -0.0369  0.1120
  340W        W 2004   7.489   5.129   2.948 -0.0060  0.1074 -0.2375
  341W        W 2005   5.557   1.034   0.972  0.0291 -0.0052  0.1010
  342W        W 2006   0.450   3.361   2.880 -0.1274 -0.2827 -0.3180
  343W        W 2007   6.414   0.863   2.385  0.3340 -0.0151 -0.0747
  344W        W 2008   7.291   1.689   0.785  0.0386  0.3159  0.0353
  345W        W 2009   6.719   6.339   4.436 -0.2152 -0.0705  0.2414
  346W        W 2010   6.345   4.093   3.196 -0.0828 -0.4084  0.0398
  347W        W 2011   7.535   6.175   3.124  0.2637 -0.2294  0.0392
  348W        W 2012   5.775   1.574   0.702 -0.3241  0.1433 -0.2880
  349W        W 2013   6.271   0.053   1.106 -0.1326 -0.1063 -0.0526
  350W        W 2014   6.730   1.356   2.588 -0.2337 -0.2283  0.0288
  351W        W 2015   6.941   7.175   4.502  0.0930 -0.2196 -0.0041
  352W        W 2016   6.011   1.937   0.314  0.1204 -0.0334  0.0579
  353W        W 2017   6.614   2.951   1.118  0.1087 -0.2552 -0.0401
  354W        W 2018   4.603   2.914   3.405  0.1876  0.3174 -0.2581
  355W        W 2019   5.784   3.299   4.564 -0.1647  0.0451  0.1422
  356W        W 2020   5.740   5.766   0.228 -0.0967 -0.2153 -0.2270
  357W        W 2021   5.001   7.620   1.988 -0.3518 -0.1137 -0.1388
  358W        W 2022   6.260   0.209   1.918 -0.3545  0.1965  0.0769
  359W        W 2023   5.547   3.439   4.133  0.0373 -0.3840 -0.1439
  360W        W 2024   0.021   2.359   0.377 -0.3820  0.1514  0.0865
  361W        W 2025   7.590   3.463   4.923  0.0882 -0.1834 -0.2265
  362W        W 2026   6.381   2.809   4.328 -0.0286 -0.0004 -0.3289
  363W        W 2027   6.880   1.715   5.355  0.0525  0.1190  0.1782
  364W        W 2028   7.053   0.422   1.494  0.3254  0.1563 -0.0579
  365W        W 2029   7.457   2.322   3.650  0.0169 -0.0987 -0.0128
  366W        W 2030   6.004   0.549   2.212  0.0566 -0.1196 -0.2918
  367W        W 2031   5.576   1.569   1.904  0.0658 -0.0804  0.1182
  368W        W 2032   5.792   1.644   3.069  0.3032 -0.0052  0.2088
  369W        W 2033   5.683   1.998   1.766 -0.5216  0.1048  0.4243
  370W        W 2034   5.128   6.247   2.235 -0.0754  0.0154 -0.1845
  371W        W 2035   0.153   5.477   0.136 -0.3672 -0.2738  0.1338
  372W        W 2036   6.593   5.932   3.870 -0.0328 -0.0245 -0.0971
  373W        W 2037   0.807   2.056   3.570  0.1485 -0.0532 -0.0848
  374W        W 2038   6.271   6.562   2.683  0.0728  0.0099 -0.3560
  375W        W 2039   6.766   4.273   4.075  0.0276  0.2247  0.0661
  376W        W 2040   5.498   7.255   0.168 -0.0553 -0.1816  0.0890
  377W        W 2041   6.472   3.606   4.791  0.3876  0.1317 -0.1374
  378W        W 2042   6.078   2.974   3.556 -0.4895  0.1477 -0.0098
  379W        W 2043   0.086   2.621   4.599 -0.5490 -0.2971  0.0932
  380W        W 2044   0.110   6.369   1.236  0.0161 -0.1531 -0.4311
  381W        W 2045   5.255   6.192   4.277 -0.0725  0.2055  0.0831
  382W        W 2046   5.603   4.976   4.926  0.1285  0.0755 -0.1408
  383W        W 2047   6.226   6.882   4.975  0.0799  0.2993  0.0138
  384W        W 2048   6.353   7.038   2.480  0.3268 -0.4204  0.0504
  385W        W 2049   6.187   2.020   4.783 -0.1137 -0.0526  0.1763
  386W        W 2050   4.534   1.366   4.933  0.1573  0.0956 -0.2524
  387W        W 2051   7.235   6.957   4.873 -0.4883  0.2612 -0.0253
  388W        W 2052   4.289   3.940   2.836  0.0491 -0.0150  0.2793
  389W        W 2053   5.521   3.086   2.802  0.0346  0.1564  0.1560
  390W        W 2054   6.144   2.539   0.152  0.0263  0.0647 -0.1655
  391W        W 2055   6.978   5.800   1.522  0.2151  0.1896  0.1593
  392W        W 2056   6.676   5.637   2.462  0.0129 -0.0025 -0.0681
  393W        W 2057   5.783   7.583   0.983  0.1994  0.0666  0.1378
  394W        W 2058   5.494   3.848   1.033  0.1808  0.0594 -0.1025
  395W        W 2059   7.169   0.374   4.853 -0.2937  0.0549  0.0076
  396W        W 2060   5.356   3.617   0.581 -0.1009 -0.0749 -0.1271
  397W        W 2061   6.090   1.846   4.068 -0.1165  0.0370  0.0427
  398W        W 2062   0.711   6.175   3.012 -0.1368 -0.1631  0.0661
  399W        W 2063   0.179   1.638   2.470 -0.0071 -0.2619 -0.0678
  400W        W 2064   6.479   1.008   2.896  0.1036  0.3053 -0.2037
  401W        W 2065   7.462   7.370   1.760 -0.1083  0.2184 -0.1207
  402W        W 2066   0.457   1.250   0.641 -0.0811 -0.2930 -0.1318
  403W        W 2067   5.267   0.004   4.035 -0.1200 -0.0919 -0.0693
  404W        W 2068   6.779   7.594   5.287 -0.1303 -0.0999  0.1300
  405W        W 2069   6.714   3.671   0.146 -0.0407 -0.3041  0.2410
  406W        W 2070   6.012   3.125   4.118  0.1077 -0.0733  0.0183
  407W        W 2071   5.869   6.655   5.255 -0.4024 -0.1125  0.1949
  408W        W 2072   6.542   2.773   0.256 -0.1275  0.0603  0.1698
  409W        W 2073   6.415   4.367   1.862 -0.1668 -0.0205 -0.0270
  410W        W 2074   0.288   6.410   2.878 -0.1325  0.3032 -0.1276
  411W        W 2075   6.456   6.869   0.073 -0.2867  0.0894 -0.0886
  412W        W 2076   0.039   0.058   2.127 -0.0929  0.1247 -0.2952
  413W        W 2077   6.122   3.027   0.329  0.0904 -0.3692 -0.1523
  414W        W 2078   5.328   4.828   2.532 -0.2290 -0.2653  0.3823
  415W        W 2079   5.301   3.492   0.062 -0.2481 -0.2422 -0.0521
  416W        W 2080   4.845   6.469   1.286  0.2487  0.0477  0.0704
  417W        W 2081   7.585   3.878   1.232  0.2570 -0.0415  0.2695
  418W        W 2082   6.641   5.282   4.690 -0.3231  0.1862  0.0465
  419W        W 2083   6.475   0.635   3.814  0.4507 -0.1156 -0.3580
  420W        W 2084   7.343   5.254   0.069 -0.0526  0.0668 -0.0211
  421W        W 2085   5.632   5.315   0.294  0.0573  0.1685 -0.3138
  422W        W 2086   5.347   4.561   3.456 -0.0829 -0.0091 -0.0256
  423W        W 2087   7.060   2.804   0.107  0.0858  0.3764  0.2126
  424W        W 2088   5.613   3.365   1.310 -0.0837  0.1745  0.2494
  425W        W 2089   6.717   6.744   2.624 -0.4877  0.1340 -0.3674
  426W        W 2090   5.744   0.020   3.103  0.0888  0.0340 -0.3589
  427W        W 2091   0.452   4.693   0.773 -0.1625 -0.2313  0.0454
  428W        W 2092   6.371   4.984   2.502  0.3507 -0.6439 -0.0128
  429W        W 2093   6.607   7.118   2.952 -0.1212  0.1651  0.0915
  430W        W 2094   6.294   6.086   4.356 -0.0487 -0.2625  0.2572
  431W        W 2095   5.407   0.951   2.170  0.1433  0.0798 -0.0165
  432W        W 2096   0.686   5.519   1.983 -0.2434 -0.0785  0.0596
  433W        W 2097   0.786   4.305   2.939 -0.1084  0.1365  0.0420
  434W        W 2098   0.501   5.203   2.916 -0.3378  0.1340  0.1203
  435W        W 2099   0.106   2.960   4.225 -0.0976 -0.1166 -0.1588
  436W        W 2100   4.847   4.593   2.541  0.1177  0.1220  0.0307
  437W        W 2101   6.138   5.061   4.007 -0.0884 -0.0216 -0.2297
  438W        W 2102   7.392   3.954   4.869 -0.0413  0.1591 -0.2023
  439W        W 2103   6.942   6.515   2.198  0.1839 -0.0277 -0.0021
  440W        W 2104   7.557   1.248   0.647 -0.0483  0.2280  0.1641
  441W        W 2105   6.922   6.888   3.628 -0.2092 -0.0189  0.1021
  442W        W 2106   5.994   3.824   3.414 -0.0843 -0.0051 -0.1719
  443W        W 2107   7.524   3.100   2.555 -0.0775 -0.2232  0.0443
  444W        W 2108   0.317   5.533   5.084 -0.1650 -0.0090 -0.0061
  445W        W 2109   6.188   4.485   4.626 -0.0105  0.1803  0.1167
  446W        W 2110   4.765   1.425   3.719  0.1156 -0.1091  0.2231
  447W        W 2111   0.101   3.943   4.140  0.3601 -0.4388  0.3179
  448W        W 2112   6.500   1.390   1.136  0.0146  0.1547 -0.0004
  449W        W 2113   6.960   3.373   0.904  0.0826  0.0691  0.0913
  450W        W 2114   4.417   5.890   1.839 -0.2919  0.2920 -0.1958
  451W        W 2115   5.468   3.586   3.332 -0.0549  0.0949 -0.0582
  452W        W 2116   6.399   5.370   5.136  0.0117  0.2154 -0.1076
  453W        W 2117   4.843   3.294   3.563 -0.0371 -0.0823 -0.2867
  454W        W 2118   0.820   1.423   4.214  0.1179 -0.0652  0.1764
  455W        W 2119   7.441   7.238   4.522 -0.2814  0.3312 -0.0550
  456W        W 2120   5.282   5.469   0.860  0.2919  0.0091 -0.0042
  457W        W 2121   5.360   5.447   3.844  0.1181  0.0914  0.1587
  458W        W 2122   6.980   0.937   3.024  0.1294  0.0069 -0.0371
  459W        W 2123   0.075   1.547   5.288  0.0412  0.0109  0.4095
  460W        W 2124   5.763   2.761   0.005 -0.1209 -0.0226 -0.1761
  461W        W 2125   7.362   1.417   2.267 -0.2624 -0.0086 -0.0732
  462W        W 2126   5.587   0.403   3.494 -0.1149 -0.1901  0.0059
  463W        W 2127   5.735   7.250   1.373 -0.2116 -0.1311  0.0433
  464W        W 2128   1.026   3.625   5.236  0.3000  0.0739  0.2226
  465W        W 2129   6.967   6.801   3.073 -0.1241 -0.0442  0.0678
  466W        W 2130   5.277   2.685   1.235 -0.0715 -0.2025 -0.0026
  467W        W 2131   5.136   5.607   0.420 -0.3802 -0.0217  0.3408
  468W        W 2132   7.370   7.066   3.312 -0.2420 -0.2359  0.2374
  469W        W 2133   7.469   5.707   5.214 -0.1709  0.0368  0.4270
  470W        W 2134   7.604   5.950   1.824  0.2427  0.0798  0.0273
  471W        W 2135   6.616   0.546   0.151 -0.3129  0.3178  0.0683
  472W        W 2136   5.814   1.772   1.159 -0.3432  0.1840  0.1384
  473W        W 2137   6.766   2.197   0.189  0.2790 -0.0289  0.3264
  474W        W 2138   7.240   4.531   2.106 -0.1365 -0.1046 -0.0762
  475W        W 2139   0.415   1.472   4.780 -0.3569 -0.4341 -0.1818
  476W        W 2140   4.780   0.185   4.164 -0.1567 -0.1982  0.4058
  477W        W 2141   7.403   0.543   3.407  0.1821  0.1066 -0.4932
  478W        W 2142   7.139   0.023   3.614 -0.0235  0.0292 -0.0596
  479W        W 2143   7.401   3.482   2.167  0.4293 -0.2979 -0.0997
  480W        W 2144   5.983   5.721   3.077  0.1554  0.0427  0.0627
  481W        W 2145   5.661   5.754   2.699  0.0602 -0.0143 -0.0888
  482W        W 2146   5.983   0.513   5.148  0.2652  0.0041 -0.0117
  483W        W 2147   5.917   2.832   2.550  0.0294  0.0776  0.0017
  484W        W 2148   4.812   5.832   2.153  0.1170  0.0989 -0.2457
  485W        W 2149   5.163   3.399   2.592  0.5077  0.0669  0.2953
  486W        W 2150   4.579   6.796   4.683  0.0682  0.1223 -0.0913
  487W        W 2151   7.417   4.171   3.354 -0.1965  0.2736  0.1790
  488W        W 2152   5.679   2.292   0.333  0.0109 -0.0464  0.0615
  489W        W 2153   0.426   3.992   1.839 -0.0034 -0.1472 -0.0208
  490W        W 2154   5.340   5.085   4.495 -0.1022  0.0720  0.2295
  491W        W 2155   0.233   0.704   1.313 -0.0364 -0.0715 -0.1909
  492W        W 2156   5.581   7.229   2.285  0.1857 -0.0785 -0.1067
  493W        W 2157   7.054   3.309   0.025 -0.0411  0.0723 -0.0444
  494W        W 2158   5.844   1.383   2.438 -0.1012  0.3972 -0.0247
  495W        W 2159   5.215   6.934   0.500 -0.2096  0.0229 -0.2641
  496W        W 2160   7.145   1.076   3.470 -0.1426 -0.0763  0.2834
  497W        W 2161   0.087   2.895   5.043 -0.0613  0.2193  0.0064
  498W        W 2162   5.554   5.055   3.530  0.0706  0.2146 -0.0713
  499W        W 2163   6.900   4.150   2.141 -0.2262 -0.4653 -0.1264
  500W        W 2164   6.506   3.395   5.238 -0.1261  0.0716  0.0597
  501W        W 2165   5.830   1.803   4.487  0.2813 -0.0221 -0.1173
  502W        W 2166   6.447   5.863   5.336 -0.1451  0.2953 -0.0967
  503W        W 2167   7.530   3.965   2.151 -0.3200  0.3023 -0.0652
  504W        W 2168   0.387   1.569   1.544 -0.0259 -0.1181 -0.0623
  505W        W 2169   6.272   5.468   3.700 -0.2262  0.0116  0.0243
  506W        W 2170   6.658   0.960   3.423  0.0978 -0.1287 -0.0503
  507W        W 2171   5.851   4.986   2.549 -0.1201  0.1786 -0.0923
  508W        W 2172   5.311   3.938   4.266  0.2141  0.0616 -0.0029
  509W        W 2173   5.640   2.271   4.428  0.1000 -0.1504  0.0858
  510W        W 2174   5.122   2.851   3.347 -0.0882  0.2265 -0.0803
  511W        W 2175   0.535   2.881   4.452  0.0487  0.3622 -0.3978
  512W        W 2176   4.808   7.449   5.057 -0.0817  0.0948 -0.1538
  513W        W 2177   0.193   2.635   3.410 -0.1628  0.1822  0.1340
  514W        W 2178   6.126   6.933   3.071  0.1389  0.4729  0.0562
  515W        W 2179   5.883   0.016   5.305 -0.0505  0.0463 -0.0233
  516W        W 2180   6.908   7.289   1.749  0.2680 -0.1436 -0.0749
  517W        W 2181   5.114   3.570   1.283  0.0811 -0.0744  0.0068
  518W        W 2182   5.324   2.176   4.810 -0.1330 -0.0195 -0.1228
  519W        W 2183   4.828   1.458   0.859  0.1129  0.1091 -0.1064
  520W        W 2184   6.307   4.497   1.359  0.1056  0.2573 -0.5005
  521W        W 2185   6.262   6.407   0.938 -0.6377 -0.0250 -0.0091
  522W        W 2186   7.590   2.993   1.587 -0.0219 -0.1389  0.1064
  523W        W 2187   5.343   7.506   3.511  0.0842 -0.0981 -0.1987
  524W        W 2188   0.158   6.434   1.734  0.1630 -0.0560 -0.0944
  525W        W 2189   6.239   4.006   4.423 -0.1678  0.0268  0.3676
  526W        W 2190   5.801   2.849   1.509 -0.1023  0.1919  0.2376
  527W        W 2191   6.776   0.888   0.451 -0.0355  0.0325  0.2213
  528W        W 2192   6.787   5.821   3.056 -0.1715  0.0293 -0.0086
  529W        W 2193   5.590   5.464   5.206  0.4843  0.0127 -0.0139
  530W        W 2194   5.192   5.425   4.870  0.1678  0.1073  0.1153
  531W        W 2195   4.662   2.953   1.759  0.4759  0.1143 -0.2871
  532W        W 2196   6.353   3.394   4.355  0.1768  0.0509 -0.0717
  533W        W 2197   5.058   0.718   0.881 -0.1893 -0.1454 -0.2143
  534W        W 2198   5.218   4.318   2.942 -0.1910  0.3088 -0.2100
  535W        W 2199   4.580   1.008   3.520  0.1246  0.1585  0.2286
  536W        W 2200   0.543   3.750   3.988  0.0534 -0.0645  0.0926
  537W        W 2201   4.732   1.490   0.362 -0.0035 -0.1288  0.1910
  538W        W 2202   6.341   7.194   4.646  0.1624  0.2468 -0.0396
  539W        W 2203   4.639   3.251   4.302 -0.0887 -0.2453  0.1739
  540W        W 2204   6.730   2.318   3.477 -0.0546  0.0899  0.2854
  541W        W 2205   7.087   3.495   5.017 -0.1079 -0.2475 -0.0161
  542W        W 2206   5.469   6.839   1.690  0.3370  0.1083 -0.1990
  543W        W 2207   5.338   6.384   5.191  0.1850 -0.0201 -0.4222
  544W        W 2208   7.181   1.752   3.186  0.1941 -0.0631  0.3254
  545W        W 2209   5.758   3.230   1.848 -0.0860 -0.0620 -0.1369
  546W        W 2210   5.999   7.013   1.786  0.0917 -0.1169  0.2476
  547W        W 2211   5.583   3.135   0.382 -0.0574 -0.0952 -0.2934
  548W        W 2212   5.605   3.989   3.043  0.2226  0.2975 -0.3367
  549W        W 2213   6.203   3.700   2.438  0.0885  0.0729  0.1350
  550W        W 2214   7.176   1.763   4.921 -0.1940  0.1007  0.0134
  551W        W 2215   6.553   5.420   4.117  0.0913  0.1096 -0.0136
  552W        W 2216   6.201   2.002   3.226 -0.0835  0.0405  0.1163
  553W        W 2217   6.408   3.413   0.955 -0.2692  0.0044 -0.2465
  554W        W 2218   0.493   2.618   4.903 -0.3137  0.1805 -0.1419
  555W        W 2219   7.056   5.520   0.645 -0.2449  0.1397 -0.0420
  556W        W 2220   7.384   5.569   1.678  0.1729  0.1361  0.1961
  557W        W 2221   5.304   4.869   3.086 -0.4143 -0.0843  0.2315
  558W        W 2222   7.341   6.114   2.207  0.2417 -0.0563 -0.1924
  559W        W 2223   6.237   0.146   3.996 -0.1816 -0.3953  0.1219
  560W        W 2224   0.020   3.209   0.019 -0.2624 -0.2845  0.3268
  561W        W 2225   5.440   0.522   3.956 -0.2507  0.1824 -0.1699
  562W        W 2226   7.523   0.275   0.628  0.4889  0.0416 -0.2629
  563W        W 2227   5.819   0.415   1.263  0.4999  0.0923  0.0325
  564W        W 2228   6.701   0.782   1.408  0.2083 -0.1797 -0.2691
  565W        W 2229   6.774   5.986   0.261  0.3956  0.1844 -0.1188
  566W        W 2230   4.999   6.979   4.923 -0.3636 -0.5093  0.3177
  567W        W 2231   4.502   4.141   2.272 -0.1276  0.1304 -0.4008
  568W        W 2232   5.056   5.188   1.588  0.1109 -0.1834 -0.1591
  569W        W 2233   7.155   7.468   4.885 -0.0295  0.1858  0.1111
  570W        W 2234   6.781   7.054   1.335  0.3097  0.0740  0.1291
  571W        W 2235   5.657   1.018   3.928 -0.0845  0.1829  0.4110
  572W        W 2236   6.088   6.468   1.790  0.5218 -0.2561  0.0790
  573W        W 2237   7.512   4.683   0.174 -0.2181  0.0004  0.1215
  574W        W 2238   5.191   4.634   4.808 -0.1504  0.1528  0.1180
  575W        W 2239   5.395   0.232   1.680 -0.2128  0.2981  0.1922
  576W        W 2240   7.216   6.485   3.411  0.0774 -0.3831  0.0716
  577W        W 2241   6.798   1.334   0.227  0.0003  0.1765  0.2741
  578W        W 2242   7.350   7.317   2.276 -0.0227  0.0946 -0.0364
  579W        W 2243   7.617   4.575   4.181 -0.1021  0.2970 -0.2489
  580W        W 2244   6.237   1.433   3.156  0.0532  0.2283 -0.1443
  581W        W 2245   6.446   1.323   0.592 -0.2321  0.1783  0.0203
  582W        W 2246   0.199   6.921   4.561  0.2427 -0.0752 -0.0381
  583W        W 2247   6.467   4.705   0.912 -0.1680 -0.2680  0.1878
  584W        W 2248   6.991   2.093   4.557  0.0958 -0.3292  0.0871
  585W        W 2249   6.265   7.382   3.208 -0.0970  0.1684  0.0266
  586W        W 2250   5.251   2.669   4.912 -0.1408  0.1852  0.0773
  587W        W 2251   5.859   4.017   0.694  0.1105 -0.0252  0.1726
  588W        W 2252   5.600   4.373   1.578 -0.2494 -0.1030  0.0210
  589W        W 2253   4.791   7.245   4.477  0.0372  0.0951  0.1286
  590W        W 2254   6.403   4.894   5.400 -0.2558  0.0668 -0.0359
  591W        W 2255   7.133   5.895   2.647  0.1322 -0.2320  0.0722
  592W        W 2256   5.923   4.139   1.845 -0.0661  0.2275  0.3108
  593W        W 2257   4.155   6.809   4.997 -0.0124  0.2046 -0.0340
  594W        W 2258   5.850   7.279   4.947 -0.4629 -0.1461 -0.1087
  595W        W 2259   6.457   6.595   0.502 -0.1825  0.0655  0.0743
  596W        W 2260   7.210   7.357   3.980  0.0238  0.1131 -0.0168
  597W        W 2261   6.329   5.805   1.695 -0.3184  0.0559  0.0514
  598W        W 2262   6.759   5.851   4.374  0.1243  0.0448  0.0901
  599W        W 2263   6.610   1.179   5.048 -0.0920 -0.0044 -0.0453
  600W        W 2264   0.392   5.707   4.122 -0.0006 -0.0412  0.0344
  601W        W 2265   5.798   2.584   3.581  0.1627 -0.1616  0.2087
  602W        W 2266   7.515   5.041   3.474  0.1017  0.2321 -0.0785
  603W        W 2267   6.394   0.805   0.679  0.3324  0.1846 -0.0770
  604W        W 2268   6.264   1.665   2.309 -0.2966  0.0294  0.0537
  605W        W 2269   5.790   5.579   3.596  0.0786 -0.0363  0.1759
  606W        W 2270   4.474   5.916   2.978  0.1325  0.2328  0.3738
  607W        W 2271   6.274   1.343   2.656 -0.1349 -0.1199 -0.0430
  608W        W 2272   6.865   7.078   0.260  0.0679  0.0602 -0.2093
  609W        W 2273   6.983   2.136   2.953 -0.1444 -0.1877  0.1691
  610W        W 2274   7.247   6.457   2.612  0.0231  0.1465 -0.1851
  611W        W 2275   5.391   4.832   5.413  0.1611 -0.1182  0.1126
  612W        W 2276   6.278   1.735   1.391  0.0489  0.1747 -0.1836
  613W        W 2277   0.257   7.347   3.139 -0.0170 -0.0856 -0.1352
  614W        W 2278   6.516   2.134   1.085  0.1490 -0.0693 -0.0995
  615W        W 2279   5.297   0.762   1.735 -0.1896  0.0326 -0.2612
  616W        W 2280   5.343   1.461   0.927 -0.0157  0.0959 -0.1678
  617W        W 2281   0.068   5.700   2.256  0.0515 -0.1529 -0.2853
  618W        W 2282   5.233   7.483   0.728  0.0472 -0.1594  0.1690
  619W        W 2283   0.660   5.251   5.289 -0.0327  0.0774 -0.2771
  620W        W 2284   6.429   5.528   0.632  0.1675 -0.0735 -0.1863
  621W        W 2285   6.593   6.266   1.720 -0.1253 -0.1863  0.2118
  622W        W 2286   6.821   1.771   2.312 -0.2375 -0.0831 -0.1829
  623W        W 2287   6.416   5.867   4.803 -0.1073 -0.0216 -0.0370
  624W        W 2288   7.063   0.162   0.919 -0.1561  0.0746 -0.2258
  625W        W 2289   7.581   1.796   3.808 -0.0833 -0.3639  0.1219
  626W        W 2290   6.979   0.925   2.415  0.1296  0.1850  0.2523
  627W        W 2291   5.447   2.368   5.275  0.1329 -0.0567  0.0295
  628W        W 2292   7.582   1.347   2.816 -0.1129  0.1090 -0.0220
  629W        W 2293   5.384   5.913   3.403 -0.3235 -0.2147 -0.0097
  630W        W 2294   5.530   1.867   4.057 -0.1258 -0.2016 -0.3347
  631W        W 2295   5.807   0.020   3.757 -0.0093  0.0200  0.3065
  632W        W 2296   6.174   2.634   4.801 -0.1595  0.1950 -0.0809
  633W        W 2297   6.221   2.695   1.268  0.1555  0.0838 -0.3561
  634W        W 2298   4.931   4.294   4.538 -0.3596  0.1059  0.0048
  635W        W 2299   5.154   6.318   0.258 -0.2869 -0.3469 -0.2003
  636W        W 2300   5.802   5.492   2.277  0.0435 -0.3571  0.1369
  637W        W 2301   5.875   4.272   1.195 -0.0808 -0.0637 -0.0417
  638W        W 2302   5.430   4.043   1.937 -0.1431 -0.0189  0.1741
  639W        W 2303   7.129   6.240   1.717 -0.2178  0.1684  0.0225
  640W        W 2304   6.302   1.244   0.062  0.0105  0.0263  0.0929
  641W        W 2305   5.658   5.512   4.667  0.0976  0.1774 -0.0224
  642W        W 2306   5.790   1.492   0.126  0.1902  0.4816  0.0842
  643W        W 2307   6.246   5.936   0.932 -0.0934 -0.1816 -0.2191
  644W        W 2308   5.520   2.658   3.117  0.1579  0.4873 -0.1146
  645W        W 2309   0.465   3.546   0.126  0.2082 -0.1187  0.1190
  646W        W 2310   0.332   4.265   3.180  0.2364 -0.1556  0.1719
  647W        W 2311   6.783   5.166   2.249 -0.2470  0.1190 -0.0147
  648W        W 2312   6.755   1.001   0.952 -0.1484 -0.1448 -0.0568
  649W        W 2313   6.675   2.893   5.190  0.0795  0.1504  0.0429
  650W        W 2314   0.324   7.391   4.530 -0.0366 -0.2378 -0.3222
  651W        W 2315   6.624   4.758   3.856  0.1200 -0.2836 -0.0922
  652W        W 2316   5.978   3.668   1.965  0.2813 -0.2373  0.2062
  653W        W 2317   5.270   5.929   2.935 -0.1199  0.0591  0.0080
  654W        W 2318   7.330   3.613   3.499  0.1177 -0.0806 -0.1052
  655W        W 2319   5.885   2.535   2.003 -0.4581 -0.0839 -0.0153
  656W        W 2320   6.874   6.492   0.241  0.0913 -0.0710  0.0642
  657W        W 2321   4.124   5.459   2.533  0.0833 -0.0887 -0.0184
  658W        W 2322   7.457   5.804   0.271 -0.0467  0.0804  0.3945
  659W        W 2323   6.770   4.300   1.227 -0.0191  0.3204 -0.0127
  660W        W 2324   7.036   1.802   3.684 -0.0899 -0.2672  0.0464
  661W        W 2325   6.017   5.765   3.992 -0.3177  0.0630 -0.1491
  662W        W 2326   5.595   6.029   2.288  0.1142 -0.0805 -0.1347
  663W        W 2327   5.112   1.184   4.465  0.0039 -0.2246  0.0401
  664W        W 2328   6.251   3.772   1.536  0.1752 -0.3355 -0.0713
  665W        W 2329   0.764   2.993   2.680  0.0247 -0.2152  0.0094
  666W        W 2330   5.903   1.119   2.952 -0.0139  0.1819 -0.0390
  667W        W 2331   5.975   7.263   2.747  0.1220  0.2582  0.2570
  668W        W 2332   4.569   0.194   3.704  0.0324 -0.0194 -0.1119
  669W        W 2333   5.412   2.566   1.764 -0.2030  0.1773  0.2710
  670W        W 2334   6.999   3.990   3.577 -0.0053 -0.2988  0.3656
  671W        W 2335   0.493   6.790   1.640 -0.1674 -0.3813 -0.1475
  672W        W 2336   6.913   3.682   2.108 -0.1345  0.1102 -0.3422
  673W        W 2337   6.220   4.503   3.567 -0.1898  0.1783 -0.0764
  674W        W 2338   6.349   0.223   5.261 -0.0363 -0.0874  0.4362
  675W        W 2339   4.332   5.697   0.214 -0.1744  0.1190 -0.2091
  676W        W 2340   6.385   6.744   3.645 -0.4022  0.3682 -0.0993
  677W        W 2341   6.529   3.363   2.476  0.3040  0.2455  0.0451
  678W        W 2342   6.708   4.171   0.163 -0.1445  0.0211  0.1126
  679W        W 2343   5.956   5.101   5.290 -0.0280  0.1467 -0.0728
  680W        W 2344   4.421   1.040   0.230 -0.0146 -0.1439 -0.2403
  681W        W 2345   7.283   3.216   4.037  0.0335 -0.1015 -0.0963
  682W        W 2346   7.439   5.043   4.033 -0.0806 -0.0939 -0.0684
  683W        W 2347   5.097   6.507   0.782  0.2227 -0.3571 -0.0517
  684W        W 2348   6.049   5.514   1.192 -0.1670 -0.0834 -0.1970
  685W        W 2349   5.547   0.478   0.880 -0.0624  0.2761  0.0336
  686W        W 2350   4.701   2.544   2.439 -0.2865 -0.2312  0.0159
  687W        W 2351   6.139   7.210   1.051  0.0395  0.2166 -0.3503
  688W        W 2352   0.162   6.254   2.266  0.1235  0.2277  0.3503
  689W        W 2353   5.426   4.028   2.489  0.0439  0.2562 -0.1254
  690W        W 2354   6.477   2.398   1.631  0.2962 -0.5039  0.3109
  691W        W 2355   6.004   6.756   0.306  0.3715 -0.3968 -0.0186
  692W        W 2356   6.934   5.285   1.417  0.3050 -0.2767 -0.2561
  693W        W 2357   6.825   4.504   4.587 -0.1642 -0.1248 -0.0363
  694W        W 2358   6.914   6.295   2.999 -0.1304 -0.1735 -0.0177
  695W        W 2359   5.781   6.248   0.088 -0.0199 -0.3580 -0.1550
  696W        W 2360   6.097   6.151   5.136 -0.1841 -0.0309  0.0361
  697W        W 2361   7.462   0.041   0.206  0.2284 -0.2538  0.0777
  698W        W 2362   7.458   0.957   3.106 -0.0041  0.2087  0.0284
  699W        W 2363   0.099   3.446   3.918  0.1269  0.1381  0.1165
  700W        W 2364   0.650   2.022   1.195 -0.1393 -0.1007 -0.1793
  701W        W 2365   5.380   6.688   4.076 -0.1501  0.2047  0.0058
  702W        W 2366   7.143   2.138   2.481  0.0826  0.0677 -0.5077
  703W        W 2367   7.259   4.247   1.727  0.0871 -0.2818  0.2043
  704W        W 2368   6.637   5.295   2.970 -0.1762  0.2204  0.0957
  705W        W 2369   6.222   1.771   0.803 -0.0727  0.3105 -0.2008
  706W        W 2370   6.539   1.947   3.847  0.1641 -0.0765 -0.0870
  707W        W 2371   5.303   5.922   5.413  0.2074 -0.0317 -0.1928
  708W        W 2372   4.775   3.653   0.628 -0.0711  0.2939 -0.0567
  709W        W 2373   6.036   4.077   3.837 -0.1530 -0.4387  0.0799
  710W        W 2374   7.188   3.220   1.761  0.0695 -0.2061 -0.1858
  711W        W 2375   5.838   2.728   4.429  0.0642  0.0180 -0.0715
  712W        W 2376   7.582   3.564   0.827  0.3411  0.0298 -0.1014
  713W        W 2377   6.877   4.472   5.169  0.3094 -0.0047 -0.1346
  714W        W 2378   6.406   1.343   4.226  0.1408  0.0082  0.1914
  715W        W 2379   6.725   5.168   0.934 -0.3502  0.3039 -0.1769
  716W        W 2380   6.445   0.879   4.519 -0.1111 -0.0400 -0.1471
  717W        W 2381   5.559   1.874   5.283  0.1941 -0.0769 -0.1648
  718W        W 2382   7.308   1.097   4.370 -0.0737 -0.0676  0.1925
  719W        W 2383   6.333   1.792   5.294  0.1935 -0.0165  0.1413
  720W        W 2384   5.434   3.135   0.896 -0.0224 -0.2027 -0.1130
  721W        W 2385   0.003   6.873   1.758 -0.0709  0.1543  0.2707
  722W        W 2386   7.178   6.941   2.538 -0.1862  0.1246 -0.0581
  723W        W 2387   5.104   3.813   2.858  0.0262 -0.0104 -0.1298
  724W        W 2388   7.155   7.512   1.317  0.2567 -0.0882  0.4399
  725W        W 2389   6.735   7.060   5.015  0.0499 -0.1448 -0.3439
  726W        W 2390   6.445   3.729   0.603  0.0483  0.0368 -0.1692
  727W        W 2391   7.335   3.431   1.321 -0.1024 -0.0213  0.0892
  728W        W 2392   5.117   2.861   3.913  0.1905  0.1311 -0.2773
  729W        W 2393   5.606   2.337   2.736  0.0945  0.2393 -0.1405
  730W        W 2394   6.518   2.370   2.890 -0.3084 -0.2063  0.0438
  731W        W 2395   6.792   1.413   3.071 -0.1701 -0.0403 -0.2817
  732W        W 2396   5.031   2.854   0.737 -0.0665  0.0624 -0.3325
  733W        W 2397   7.283   0.854   3.899 -0.0382  0.3017 -0.2544
  734W        W 2398   5.047   5.084   3.390 -0.0031  0.0034 -0.0423
  735W        W 2399   5.772   6.788   1.327  0.2115  0.0151  0.2651
  736W        W 2400   7.240   3.810   4.004  0.1000  0.0521  0.0219
  737W        W 2401   7.574   4.117   0.339 -0.0612  0.3472  0.0321
  738W        W 2402   6.384   0.736   1.925 -0.1102 -0.0320  0.1025
  739W        W 2403   4.957   7.602   1.497 -0.0646 -0.2701  0.0361
  740W        W 2404   6.925   2.486   1.320  0.0518 -0.4256  0.2361
  741W        W 2405   4.720   3.779   4.089 -0.0293  0.1056 -0.1538
  742W        W 2406   5.926   6.751   0.813  0.0087  0.1861 -0.2241
  743W        W 2407   6.474   0.341   2.347 -0.0341 -0.2834  0.0356
  744W        W 2408   6.444   7.532   0.238 -0.0677 -0.1957 -0.3595
  745W        W 2409   5.462   5.048   2.114 -0.2326 -0.1377  0.0763
  746W        W 2410   7.519   6.511   4.769 -0.2706  0.1731  0.2841
  747W        W 2411   6.676   6.141   2.597 -0.0343  0.1386  0.1512
  748W        W 2412   0.155   0.123   3.469  0.3118 -0.3066  0.2693
  749W        W 2413   5.166   5.937   4.826  0.0029  0.1009  0.0794
  750W        W 2414   6.703   1.948   4.944  0.1311 -0.1281  0.1336
  751W        W 2415   6.290   7.351   1.483 -0.0374  0.2251 -0.1142
  752W        W 2416   5.483   6.950   5.031  0.4046 -0.2284 -0.1102
  753W        W 2417   7.144   7.212   5.312  0.3259 -0.0945 -0.1029
  754W        W 2418   5.481   5.877   3.996 -0.1449 -0.0806 -0.0528
  755W        W 2419   0.252   4.721   1.615 -0.0360 -0.1944 -0.0780
  756W        W 2420   5.571   1.118   4.773 -0.0538 -0.0918 -0.0905
  757W        W 2421   0.283   2.002   0.129  0.3891 -0.3678  0.4328
  758W        W 2422   5.254   5.627   4.402 -0.0585  0.1464 -0.1007
  759W        W 2423   6.169   4.576   2.245 -0.1408  0.0724 -0.0470
  760W        W 2424   0.153   6.877   1.261 -0.1936 -0.3622  0.0080
  761W        W 2425   5.504   4.578   0.525 -0.3433  0.1290 -0.0422
  762W        W 2426   0.696   0.835   3.233  0.3246 -0.1783 -0.1557
  763W        W 2427   0.095   3.834   3.159  0.0770  0.0103 -0.0484
  764W        W 2428   6.936   0.708   4.406  0.0361 -0.2385 -0.0807
  765W        W 2429   6.133   0.595   2.678  0.0387  0.1061  0.2046
  766W        W 2430   0.107   1.733   0.478  0.2503  0.1141 -0.2964
  767W        W 2431   7.577   3.111   1.006  0.2338  0.2987 -0.0441
  768W        W 2432   5.428   6.472   4.718 -0.1050 -0.3972 -0.5416
  769W        W 2433   6.840   5.952   5.041 -0.0637 -0.1042 -0.0408
  770W        W 2434   0.224   3.398   1.305  0.1513  0.1229 -0.0370
  771W        W 2435   6.917   2.537   2.104 -0.0338 -0.1795  0.0415
  772W        W 2436   7.442   0.573   4.458  0.0193  0.0885  0.1245
  773W        W 2437   7.086   3.619   0.468  0.1330 -0.0184  0.1296
  774W        W 2438   0.141   4.664   4.901 -0.1192 -0.1541 -0.2026
  775W        W 2439   6.300   1.132   3.749  0.0223  0.0441 -0.1564
  776W        W 2440   6.839   1.240   4.538  0.0168 -0.0313  0.0201
  777W        W 2441   5.666   5.710   1.558  0.3811 -0.0119 -0.3174
  778W        W 2442   6.996   2.647   4.652 -0.3808 -0.0942 -0.0371
  779W        W 2443   5.675   0.117   2.115  0.3538  0.0785  0.3669
  780W        W 2444   6.981   1.593   1.241 -0.2261 -0.4465 -0.0618
  781W        W 2445   5.719   2.442   4.887  0.0413  0.1339  0.0517
  782W        W 2446   6.057   4.692   5.029 -0.2756  0.0830 -0.0885
  783W        W 2447   5.441   6.809   0.058  0.0811  0.2890 -0.1884
  784W        W 2448   5.994   3.445   3.710  0.3504 -0.2322  0.1563
  785W        W 2449   7.401   0.702   1.417 -0.1091 -0.2731 -0.0002
  786W        W 2450   6.553   0.530   3.201  0.2319 -0.3917  0.3353
  787W        W 2451   5.065   4.937   0.344 -0.4095 -0.1414 -0.1696
  788W        W 2452   5.935   5.908   1.924 -0.0185  0.0837  0.1476
  789W        W 2453   0.691   6.378   1.411  0.2093 -0.2522 -0.0367
  790W        W 2454   5.481   2.397   2.248 -0.0766  0.0561 -0.0123
  791W        W 2455   6.117   2.951   2.982  0.0180 -0.2240 -0.0171
  792W        W 2456   5.149   5.258   5.372  0.1005  0.0718 -0.1608
  793W        W 2457   7.064   4.312   2.603 -0.1067  0.0696  0.2873
  794W        W 2458   6.618   4.390   2.818  0.1080  0.2979 -0.1756
  795W        W 2459   5.742   2.525   1.137  0.3015 -0.0617 -0.0431
  796W        W 2460   7.028   5.675   5.397  0.2547 -0.2101  0.2789
  797W        W 2461   6.895   5.934   2.031 -0.0608  0.0486 -0.1561
  798W        W 2462   6.182   6.286   3.845 -0.0377 -0.2298  0.2439
  799W        W 2463   7.286   4.299   1.123  0.0251 -0.1534  0.2876
  800W        W 2464   5.952   2.200   5.222  0.0296 -0.2360 -0.1795
  801W        W 2465   6.648   6.216   3.468  0.1998 -0.3565 -0.1931
  802W        W 2466   6.174   7.308   3.926  0.0823  0.4006 -0.0759
  803W        W 2467   5.482   7.178   3.166  0.0081 -0.1455  0.2355
  804W        W 2468   7.606   4.638   3.183  0.0130  0.0235  0.0149
  805W        W 2469   6.094   6.409   3.284  0.0859  0.0793 -0.0536
  806W        W 2470   6.503   1.291   1.981  0.2794 -0.0192  0.0889
  807W        W 2471   6.997   2.078   0.984 -0.1026 -0.1690  0.0974
  808W        W 2472   6.175   0.844   3.347 -0.0978  0.1885 -0.1031
  809W        W 2473   5.659   3.851   5.233 -0.1121 -0.1007  0.0986
  810W        W 2474   6.806   1.259   1.551 -0.1742 -0.1332 -0.2118
  811W        W 2475   5.964   0.625   3.826  0.1821  0.0832  0.2670
  812W        W 2476   5.682   0.324   2.595 -0.0711  0.0534 -0.0068
  813W        W 2477   5.803   2.745   0.538 -0.1595  0.2002  0.0209
  814W        W 2478   6.244   5.925   3.493 -0.1790  0.3920 -0.2694
  815W        W 2479   7.279   6.153   5.320 -0.2688 -0.1140 -0.1529
  816W        W 2480   5.334   3.258   3.676 -0.0202 -0.0750 -0.0633
  817W        W 2481   4.636   7.107   2.031  0.1538  0.1212  0.1579
  818W        W 2482   5.675   0.024   4.616  0.0665  0.0870  0.2821
  819W        W 2483   6.526   7.195   3.547  0.1097 -0.1078 -0.0513
  820W        W 2484   7.335   2.881   2.104  0.1872  0.4700 -0.1316
  821W        W 2485   5.870   0.403   4.311 -0.1134 -0.1735 -0.1582
  822W        W 2486   0.056   6.023   2.695  0.0542 -0.0870 -0.1533
  823W        W 2487   6.511   3.889   1.117  0.1160  0.4713  0.1791
  824W        W 2488   6.889   3.416   3.738  0.0583  0.1263  0.0289
  825W        W 2489   7.173   0.120   1.995 -0.1486 -0.2818 -0.0917
  826W        W 2490   4.506   0.667   1.049 -0.0521 -0.2161 -0.2196
  827W        W 2491   5.335   1.937   2.242 -0.3877  0.3180  0.1640
  828W        W 2492   5.761   2.958   4.902  0.1510  0.0472 -0.1551
  829W        W 2493   0.073   4.399   2.013 -0.5786  0.2060 -0.0644
  830W        W 2494   5.273   0.172   2.927 -0.0431 -0.0241 -0.1512
  831W        W 2495   4.513   2.831   0.606 -0.2041  0.0381  0.0180
  832W        W 2496   5.769   1.754   3.575 -0.2568  0.3058 -0.0461
  833W        W 2497   7.109   4.674   4.156  0.0517 -0.2144 -0.0228
  834W        W 2498   6.028   4.796   1.673 -0.2360 -0.1786 -0.0081
  835W        W 2499   6.381   4.378   5.303  0.0635  0.1731  0.1085
  836W        W 2500   6.845   1.565   4.119 -0.0600  0.1305  0.2257
  837W        W 2501   6.424   6.627   2.212 -0.3131  0.2081 -0.1555
  838W        W 2502   6.574   6.974   4.082 -0.0729 -0.1227 -0.2447
  839W        W 2503   6.749   1.411   3.669  0.1465  0.1592 -0.0357
  840W        W 2504   6.125   5.139   0.863  0.1237  0.0237 -0.0249
  841W        W 2505   6.658   1.782   3.315  0.1154 -0.1107  0.1025
  842W        W 2506   6.737   5.509   1.841 -0.4641  0.1610 -0.0517
  843W        W 2507   7.329   5.415   3.715  0.1155 -0.1514 -0.3908
  844W        W 2508   5.390   1.280   2.926  0.1843  0.1675 -0.3877
  845W        W 2509   7.117   5.392   2.745 -0.0847 -0.4093 -0.0800
  846W        W 2510   7.289   6.753   0.364  0.1006  0.1152  0.2801
  847W        W 2511   7.323   1.393   3.933 -0.2332  0.1182  0.0582
  848W        W 2512   6.547   3.802   3.508  0.0175 -0.1155  0.3683
  849W        W 2513   5.258   2.310   3.579 -0.1286 -0.0965  0.6392
  850W        W 2514   6.188   0.784   1.159  0.2508 -0.2121  0.1473
  851W        W 2515   7.039   5.467   3.271  0.1964  0.0464 -0.3791
  852W        W 2516   5.342   3.031   1.675  0.1941  0.0181 -0.1416
  853W        W 2517   7.553   1.629   1.790  0.0192  0.1596  0.1100
  854W        W 2518   7.478   6.752   2.923  0.0794 -0.0246  0.2551
  855W        W 2519   6.570   1.814   2.760  0.0992 -0.1134  0.2407
  856W        W 2520   5.693   2.263   3.903  0.1250  0.0828 -0.0425
  857W        W 2521   0.482   1.929   5.110 -0.0082 -0.3098 -0.0548
  858W        W 2522   5.929   1.055   2.012 -0.0186 -0.1470 -0.3149
  859W        W 2523   6.758   0.323   4.045 -0.3014  0.0031 -0.1412
  860W        W 2524   6.603   6.781   4.596 -0.2651  0.1686  0.0887
  861W        W 2525   5.500   0.394   4.890  0.2088 -0.1423 -0.1427
  862W        W 2526   0.489   1.434   2.848  0.1368 -0.3728 -0.0233
  863W        W 2527   4.766   3.436   4.978  0.0751 -0.0551 -0.2294
  864W        W 2528   7.359   7.244   0.354  0.2168  0.3731  0.1992
  865W        W 2529   6.516   6.865   0.926 -0.1157 -0.0478  0.1995
  866W        W 2530   0.296   4.835   3.934 -0.0749 -0.1401  0.2433
  867W        W 2531   6.331   6.067   2.962  0.0683  0.0862 -0.0666
  868W        W 2532   6.310   6.722   1.363 -0.3842  0.3091 -0.2456
  869W        W 2533   6.463   1.731   0.335 -0.0478 -0.3393  0.0169
  870W        W 2534   5.567   6.409   1.003 -0.0059  0.0183 -0.2596
  871W        W 2535   7.092   4.984   3.204 -0.0110  0.0959  0.1346
  872W        W 2536   6.366   0.377   4.487 -0.1378  0.0229  0.0350
  873W        W 2537   5.230   3.509   4.511 -0.1315 -0.1170  0.5070
  874W        W 2538   5.832   1.865   2.213  0.1300  0.2028  0.1190
  875W        W 2539   5.358   2.437   0.723  0.3312 -0.3701 -0.0229
  876W        W 2540   5.754   7.161   0.611  0.1914 -0.0897 -0.1610
  877W        W 2541   6.683   6.491   3.984  0.0444  0.0829  0.0276
  878W        W 2542   7.367   6.643   5.316 -0.1852 -0.0731 -0.1291
  879W        W 2543   0.553   2.381   2.080 -0.2586  0.1453 -0.2151
  880W        W 2544   7.566   1.407   3.423 -0.0989 -0.0531 -0.2154
  881W        W 2545   6.755   3.114   2.058  0.1403 -0.2231  0.1443
  882W        W 2546   6.821   4.086   0.765 -0.1710 -0.2383  0.0385
  883W        W 2547   5.211   6.129   1.295  0.0175 -0.1255 -0.1322
  884W        W 2548   5.271   5.973   1.862 -0.0547 -0.2387 -0.0306
  885W        W 2549   4.877   6.146   5.282 -0.0318  0.0221 -0.0354
  886W        W 2550   5.273   5.488   1.981  0.4237  0.4025 -0.5108
  887W        W 2551   6.527   1.880   4.427  0.1128  0.0501  0.1479
  888W        W 2552   4.556   7.229   3.006 -0.1688 -0.0015  0.2745
  889W        W 2553   0.317   4.512   5.356  0.1691  0.0363  0.0919
  890W        W 2554   5.579   1.833   2.641 -0.0881 -0.0107  0.2235
  891W        W 2555   5.849   3.818   4.669 -0.0859  0.3782 -0.0293
  892W        W 2556   5.669   4.562   2.072 -0.1718  0.1424 -0.1376
  893W        W 2557   6.433   3.212   3.895 -0.0343  0.0103  0.0578
  894W        W 2558   4.743   5.865   1.243 -0.0656 -0.4405  0.1913
  895W        W 2559   6.370   2.648   3.344  0.1193 -0.0355  0.0803
  896W        W 2560   6.247   3.280   1.454 -0.0527  0.3030  0.1360
  897W        W 2561   6.696   0.012   1.368  0.1511  0.0275  0.2724
  898W        W 2562   7.137   0.648   0.983  0.0840 -0.0091  0.2366
  899W        W 2563   6.620   5.061   3.462  0.2713 -0.0222 -0.1251
  900W        W 2564   6.325   7.093   0.529  0.0073  0.1206 -0.0429
  901W        W 2565   6.159   0.793   0.177 -0.1447 -0.0889  0.2016
  902W        W 2566   5.142   1.057   3.976 -0.1653  0.0583  0.0573
  903W        W 2567   6.316   4.274   0.769 -0.1046  0.2040  0.2513
  904W        W 2568   0.748   0.957   2.718 -0.0205 -0.0356 -0.0247
  905W        W 2569   7.317   4.313   3.840  0.0265 -0.2009  0.2569
  906W        W 2570   5.675   1.031   0.094  0.1559 -0.2562  0.3579
  907W        W 2571   6.425   4.670   3.145 -0.0344 -0.0399  0.1191
  908W        W 2572   0.523   3.098   5.282 -0.0620  0.0426  0.0334
  909W        W 2573   5.342   7.587   5.112  0.2214  0.0505  0.1592
  910W        W 2574   5.355   1.364   5.343  0.0757 -0.1105 -0.1517
  911W        W 2575   5.493   2.154   1.284 -0.2938  0.0559  0.0145
  912W        W 2576   5.943   6.351   4.658  0.2026 -0.2436  0.0311
  913W        W 2577   5.973   1.443   1.647 -0.2782 -0.2167 -0.1290
  914W        W 2578   5.997   4.651   0.701 -0.0059  0.2534 -0.0889
  915W        W 2579   6.864   4.892   2.711  0.0936 -0.2071  0.3708
  916W        W 2580   4.844   7.396   3.887 -0.1187  0.0212  0.3920
  917W        W 2581   4.479   6.383   2.787 -0.2119  0.1246  0.1779
  918W        W 2582   6.864   3.932   4.602 -0.0870  0.1997  0.0097
  919W        W 2583   4.880   5.201   3.910 -0.1289  0.2070 -0.0176
  920W        W 2584   4.494   3.821   5.264 -0.1911  0.0931 -0.0143
  921W        W 2585   6.933   4.719   0.775  0.0093 -0.0282 -0.5868
  922W        W 2586   6.696   4.642   2.304 -0.2436  0.2143  0.0211
  923W        W 2587   6.060   2.173   1.414 -0.0327 -0.1215 -0.1050
  924W        W 2588   7.241   3.811   2.508 -0.1622  0.1897 -0.2371
  925W        W 2589   7.238   4.927   1.151  0.2141  0.2867 -0.1864
  926W        W 2590   7.325   4.851   5.144  0.0697  0.2196  0.1787
  927W        W 2591   7.215   3.034   2.929 -0.0589 -0.3934 -0.0319
  928W        W 2592   6.221   6.627   4.199  0.2878 -0.1036 -0.1113
  929W        W 2593   5.621   5.851   1.079  0.0695 -0.0574 -0.1278
  930W        W 2594   6.000   5.015   0.367 -0.4544  0.4945 -0.2858
  931W        W 2595   7.279   2.504   1.752  0.1656  0.1493  0.1696
  932W        W 2596   5.476   1.422   4.283 -0.1418 -0.0104 -0.2838
  933W        W 2597   6.816   7.116   2.239  0.1685  0.2015  0.0754
  934W        W 2598   7.135   0.952   4.831  0.0191 -0.3989 -0.1672
  935W        W 2599   6.035   1.174   5.063 -0.3001  0.0655  0.1154
  936W        W 2600   0.064   2.302   5.103 -0.0927 -0.1254 -0.0405
  937W        W 2601   7.524   0.125   5.181 -0.5086  0.0897  0.2934
  938W        W 2602   6.769   2.440   4.201 -0.0790 -0.3723 -0.2415
  939W        W 2603   7.555   6.954   0.747 -0.0820 -0.1162  0.2222
  940W        W 2604   5.940   0.062   1.574 -0.0773  0.3551  0.0362
  941W        W 2605   5.830   6.870   4.664  0.0263  0.0342 -0.2751
  942W        W 2606   6.662   3.068   2.923  0.0387  0.1173 -0.3661
  943W        W 2607   5.698   3.111   3.274 -0.1077 -0.2220  0.0113
  944W        W 2608   5.910   0.757   4.680 -0.0223  0.3866 -0.0572
  945W        W 2609   5.350   4.103   0.666  0.0916 -0.1089  0.2262
  946W        W 2610   0.289   5.365   1.642  0.1810 -0.1910  0.1045
  947W        W 2611   6.854   4.577   1.745  0.0737  0.1580 -0.1237
  948W        W 2612   4.426   7.479   4.120  0.1993  0.1217  0.0429
  949W        W 2613   7.503   4.871   4.554  0.4405  0.0952 -0.2030
  950W        W 2614   5.901   6.837   3.858  0.0601  0.0426 -0.2192
  951W        W 2615   6.928   7.354   3.258  0.0895  0.4215  0.2319
  952W        W 2616   6.365   3.335   3.340  0.5103  0.4175  0.0533
  953W        W 2617   7.274   2.634   4.273 -0.2760  0.0505  0.3725
  954W        W 2618   7.166   3.899   0.103 -0.0013 -0.1365  0.0613
  955W        W 2619   6.355   7.318   5.177 -0.0304  0.1052  0.0306
  956W        W 2620   0.155   5.495   2.697  0.1728 -0.0359  0.3460
  957W        W 2621   6.941   5.716   1.067 -0.0942  0.1582  0.5337
  958W        W 2622   7.407   3.132   0.484  0.3095 -0.0367  0.1569
  959W        W 2623   5.788   5.920   4.468  0.3230 -0.1196  0.0784
  960W        W 2624   6.942   0.596   3.597  0.1367  0.1769 -0.3496
  961W        W 2625   7.490   2.239   3.164  0.1738  0.1262 -0.1970
  962W        W 2626   6.182   5.560   4.445  0.1264 -0.3180 -0.1574
  963W        W 2627   4.476   5.615   4.086 -0.0756  0.4714  0.2416
  964W        W 2628   5.704   3.670   2.675 -0.2315  0.3380 -0.3228
  965W        W 2629   4.891   5.280   4.377  0.0517 -0.1663  0.0865
  966W        W 2630   5.486   0.842   4.357 -0.1526 -0.2128 -0.2081
  967W        W 2631   0.274   7.205   2.049  0.1910  0.3961  0.0708
  968W        W 2632   0.122   3.924   3.638 -0.0909  0.0025 -0.2140
  969W        W 2633   5.641   4.465   2.616  0.1681 -0.0961  0.0505
  970W        W 2634   1.282   1.110   4.400 -0.1419 -0.1933  0.0428
  971W        W 2635   4.458   7.373   0.773 -0.0454 -0.1536 -0.1231
  972W        W 2636   5.188   5.724   2.492  0.4538  0.0994 -0.0159
  973W        W 2637   6.782   1.680   0.809 -0.0290 -0.0278 -0.1480
  974W        W 2638   6.019   6.313   2.213  0.0876 -0.0186  0.0555
  975W        W 2639   5.995   6.111   1.423 -0.1143 -0.3504  0.1864
  976W        W 2640   5.168   7.144   4.194  0.3199  0.2099  0.1031
  977W        W 2641   5.468   2.922   2.192  0.5403 -0.0180  0.1199
  978W        W 2642   5.931   3.292   2.417  0.1870  0.1763 -0.2535
  979W        W 2643   5.820   5.579   0.705 -0.1836 -0.1850  0.3514
  980W        W 2644   5.633   6.042   4.982 -0.2398  0.0933  0.2191
  981W        W 2645   6.684   4.940   4.360 -0.0166  0.4343 -0.1452
  982W        W 2646   4.545   5.007   2.425 -0.3495  0.0251  0.3984
  983W        W 2647   5.848   6.253   2.689  0.0533 -0.1925 -0.0155
  984W        W 2648   5.705   3.816   1.541  0.3118 -0.3653  0.0419
  985W        W 2649   5.252   0.990   3.500 -0.0754 -0.0124 -0.0164
  986W        W 2650   6.737   3.827   2.554  0.1589  0.3610  0.2161
  987W        W 2651   0.339   2.162   3.755  0.1434  0.0287  0.2070
  988W        W 2652   5.848   3.477   0.694 -0.1076 -0.1208 -0.0047
  989W        W 2653   6.119   5.144   4.758  0.2527  0.0806  0.0525
  990W        W 2654   0.320   0.737   5.277  0.2201  0.2973 -0.2471
  991W        W 2655   7.180   6.385   3.990  0.1170 -0.1787 -0.0075
  992W        W 2656   6.540   2.350   4.641  0.3858 -0.1883  0.3187
  993W        W 2657   7.299   4.451   4.775 -0.0312  0.0976  0.1236
  994W        W 2658   7.204   1.110   1.077 -0.3318 -0.1727 -0.1084
  995W        W 2659   6.426   4.137   4.845  0.2178  0.0129 -0.0750
  996W        W 2660   7.222   5.065   0.561  0.0439  0.0309  0.2605
  997W        W 2661   5.593   2.914   4.072  0.0203 -0.1811  0.0039
  998W        W 2662   0.219   7.410   0.433 -0.0033 -0.1807  0.0419
  999W        W 2663   5.426   4.541   1.127 -0.1345  0.0066 -0.1591
 1000W        W 2664   6.305   5.031   1.336  0.1691  0.3167 -0.2098
 1001W        W 2665   5.828   4.824   4.382  0.1097  0.0680 -0.0107
 1002W        W 2666   7.421   6.639   2.149  0.0905  0.2364  0.0465
 1003W        W 2667   7.164   0.745   1.931 -0.0058 -0.1756 -0.0797
 1004W        W 2668   7.412   3.061   4.605 -0.0778  0.1586 -0.1008
 1005W        W 2669   6.629   7.406   0.838  0.3741 -0.1639  0.0659
 1006W        W 2670   7.111   6.677   4.424  0.1619 -0.2720  0.3716
 1007W        W 2671   6.810   0.004   2.364 -0.3802 -0.0896  0.2766
 1008W        W 2672   6.805   6.578   1.244  0.1736  0.0470 -0.3534
 1009W        W 2673   5.826   4.809   1.186 -0.0258 -0.1161  0.0821
 1010W        W 2674   5.163   0.319   0.485  0.0943  0.0080 -0.0820
 1011W        W 2675   5.320   2.684   0.282  0.2752  0.0664  0.1245
 1012W        W 2676   0.192   0.181   2.975  0.0224  0.6735  0.0091
 1013W        W 2677   6.118   5.486   0.139 -0.4102 -0.2282 -0.0228
 1014W        W 2678   6.945   6.538   0.696 -0.3459 -0.0565  0.0214
 1015W        W 2679   4.850   4.232   5.258  0.0791  0.2587 -0.0039
 1016W        W 2680   5.552   6.542   0.484  0.1642 -0.0363 -0.0005
 1017W        W 2681   6.239   5.342   3.232  0.0386  0.0064 -0.0233
 1018W        W 2682   7.100   4.384   0.406  0.0077  0.1407  0.0020
 1019W        W 2683   7.006   0.446   0.508 -0.0534 -0.1170  0.2884
 1020W        W 2684   6.878   3.570   4.306  0.0921  0.0561  0.1019
 1021W        W 2685   6.969   1.208   2.022  0.1749 -0.1858  0.0731
 1022W        W 2686   6.037   1.971   2.735  0.1511 -0.2844  0.0102
 1023W        W 2687   5.856   4.629   3.120 -0.2005 -0.1786 -0.2201
 1024W        W 2688   7.057   6.801   1.675 -0.0331 -0.1111 -0.0089
 1025W        W 2689   7.553   5.978   4.036 -0.2367  0.2434 -0.0371
 1026W        W 2690   7.537   1.296   4.870 -0.2089 -0.0200  0.4319
 1027W        W 2691   6.597   2.233   2.355  0.0342  0.0005 -0.1320
 1028W        W 2692   6.049   0.438   0.791 -0.0050  0.3584 -0.1743
 1029W        W 2693   7.454   5.716   3.001 -0.1124 -0.0699 -0.1821
 1030W        W 2694   5.228   1.822   2.958 -0.0954 -0.0659 -0.0378
 1031W        W 2695   6.288   0.433   1.492 -0.0471  0.6121 -0.0781
 1032W        W 2696   0.496   0.914   1.893  0.0151  0.1308  0.4126
 1033W        W 2697   7.265   1.998   1.499  0.1448  0.1120 -0.1298
 1034W        W 2698   5.313   4.943   3.944 -0.1564 -0.0091  0.1233
 1035W        W 2699   6.109   0.305   0.286  0.0233  0.2451  0.1014
 1036W        W 2700   7.517   5.920   1.363 -0.4031  0.0207  0.0961
 1037W        W 2701   4.911   1.416   2.845  0.1632  0.1656 -0.0649
 1038W        W 2702   5.011   0.360   5.102 -0.1811  0.1761  0.2326
 1039W        W 2703   4.673   0.956   4.586 -0.0377  0.0247 -0.1438
 1040W        W 2704   6.874   2.993   4.204  0.0842  0.0941  0.0095
 1041W        W 2705   5.515   7.356   1.772  0.0794  0.4222  0.2676
 1042W        W 2706   5.246   7.258   1.296 -0.0634 -0.0563  0.0098
 1043W        W 2707   5.209   2.134   0.298 -0.1386 -0.1986  0.2995
 1044W        W 2708   5.483   0.309   0.007 -0.1565  0.2924 -0.1247
 1045W        W 2709   6.795   1.063   4.018  0.2741  0.1052  0.3100
 1046W        W 2710   7.015   3.358   2.633 -0.1304  0.1153  0.0172
 1047W        W 2711   6.522   6.404   4.922 -0.1150 -0.0468 -0.3886
 1048W        W 2712   6.566   1.770   1.800 -0.2308 -0.0299 -0.0388
 1049W        W 2713   6.693   0.539   4.904  0.2884  0.0619  0.0535
 1050W        W 2714   5.560   6.372   1.556 -0.0715  0.3219 -0.0794
 1051W        W 2715   0.138   0.470   2.531 -0.2393  0.0114 -0.0905
 1052W        W 2716   5.322   4.062   3.454 -0.0806  0.0946  0.5013
 1053W        W 2717   6.242   2.666   0.798 -0.0377 -0.1385 -0.1614
 1054W        W 2718   7.582   6.307   0.768  0.3242  0.0705  0.1819
 1055W        W 2719   6.055   2.637   4.002 -0.4163  0.0396  0.3661
 1056W        W 2720   7.281   1.610   4.469  0.2674  0.1386  0.1906
 1057W        W 2721   7.421   2.253   4.690 -0.0920 -0.2335 -0.1833
 1058W        W 2722   5.508   3.551   2.216 -0.1186  0.1106  0.0846
 1059W        W 2723   6.828   2.889   1.642 -0.0549  0.2207  0.0555
 1060W        W 2724   6.208   4.105   0.321  0.3457  0.1797  0.1458
 1061W        W 2725   6.638   6.040   1.243  0.5030 -0.1026  0.1518
 1062W        W 2726   6.438   3.741   4.003  0.0550  0.0298 -0.0184
 1063W        W 2727   5.268   0.418   2.126 -0.0556 -0.0225  0.0654
 1064W        W 2728   5.826   5.187   3.099 -0.0802  0.0179  0.0437
 1065W        W 2729   7.173   2.406   5.236  0.2456  0.2174 -0.0217
 1066W        W 2730   7.549   3.557   0.334  0.1199  0.1342 -0.0887
 1067W        W 2731   7.348   4.290   5.278 -0.2330 -0.2648  0.0810
 1068W        W 2732   5.385   1.608   4.900 -0.2451  0.2898 -0.1883
 1069W        W 2733   4.468   4.342   3.991  0.5650 -0.0998  0.1355
 1070W        W 2734   5.446   1.924   0.669  0.0111 -0.2449  0.5488
 1071W        W 2735   5.762   4.307   3.498 -0.1458  0.1035  0.1658
 1072W        W 2736   7.496   0.888   2.562  0.4525 -0.0567  0.2248
 1073W        W 2737   6.514   0.237   0.629  0.5050 -0.1370 -0.1446
 1074W        W 2738   7.035   7.386   2.745  0.3945 -0.1846  0.0105
 1075W        W 2739   6.257   1.562   3.636  0.0793  0.3232 -0.1812
 1076W        W 2740   5.172   1.843   4.486 -0.2072 -0.0763  0.1224
 1077W        W 2741   7.276   0.305   3.985  0.0802  0.1931 -0.1486
 1078W        W 2742   6.006   1.257   1.177 -0.0513 -0.1235  0.0252
 1079W        W 2743   6.078   0.120   4.860 -0.1272 -0.1100  0.1324
 1080W        W 2744   0.242   1.383   3.907 -0.2788  0.2347  0.2194
 1081W        W 2745   5.680   2.173   3.318  0.0455  0.0632  0.0631
 1082W        W 2746   7.077   1.275   0.637  0.2539 -0.0756 -0.0809
 1083W        W 2747   5.806   4.608   3.883 -0.1094 -0.1137 -0.2354
 1084W        W 2748   7.355   2.706   3.261  0.0011  0.1804  0.0280
 1085W        W 2749   7.475   4.554   0.689  0.1549 -0.1707  0.2634
 1086W        W 2750   0.259   2.265   1.709  0.3002 -0.0580  0.2657
 1087W        W 2751   7.137   1.285   5.284  0.0017  0.0580 -0.3056
 1088W        W 2752   4.876   3.026   2.703  0.2075 -0.0919 -0.1159
 1089W        W 2753   5.686   0.605   0.467 -0.1250 -0.2736 -0.0193
 1090W        W 2754   7.051   6.372   4.829  0.4290 -0.1071  0.2739
 1091W        W 2755   7.146   2.426   0.405  0.1252 -0.0531  0.1296
 1092W        W 2756   5.881   4.072   2.350 -0.2924 -0.2544 -0.4076
 1093W        W 2757   5.934   6.814   2.330  0.2977 -0.1124  0.2186
 1094W        W 2758   7.558   5.133   1.422 -0.0637 -0.0176  0.0131
 1095W        W 2759   5.210   6.634   3.326  0.3956 -0.0168  0.0065
 1096W        W 2760   6.066   7.507   4.396  0.1614  0.0151  0.0861
 1097W        W 2761   5.744   5.399   4.183  0.0849  0.1888  0.1530
 1098W        W 2762   7.620   1.000   3.619 -0.0054  0.3005 -0.1564
 1099W        W 2763   6.129   7.610   2.320 -0.2020 -0.0708 -0.0779
 1100W        W 2764   7.605   0.572   2.072  0.0757 -0.3312 -0.1800
 1101W        W 2765   7.303   0.843   0.486  0.1861 -0.0636  0.0246
 1102W        W 2766   7.122   2.996   1.249 -0.0137  0.1178  0.0242
 1103W        W 2767   5.714   0.859   2.610  0.1397  0.1922  0.0159
 1104W        W 2768   6.405   3.888   2.047  0.2558 -0.1223  0.1481
 1105W        W 2769   7.337   1.957   5.390 -0.1102 -0.0834  0.1162
 1106W        W 2770   7.389   2.032   1.964 -0.0944 -0.1814 -0.0326
 1107W        W 2771   6.870   3.475   3.216 -0.1397  0.0194 -0.2713
 1108W        W 2772   6.083   2.176   3.670 -0.0960 -0.1044 -0.0364
 1109W        W 2773   5.049   6.730   4.435 -0.2801  0.0159 -0.2259
 1110W        W 2774   6.384   2.824   2.565  0.0425  0.0262 -0.2321
 1111W        W 2775   0.271   4.038   5.018  0.1343 -0.1477 -0.4385
 1112W        W 2776   5.254   0.582   2.618 -0.0701 -0.1261  0.2488
 1113W        W 2777   7.138   4.721   3.630  0.0285  0.0497  0.1509
 1114W        W 2778   5.343   4.569   4.306 -0.2738  0.0499 -0.0734
 1115W        W 2779   0.116   4.274   4.546  0.0177  0.1515 -0.0132
 1116W        W 2780   5.535   6.304   3.186  0.1191  0.1008  0.2475
 1117W        W 2781   6.862   5.161   5.195 -0.1394 -0.0520  0.0048
 1118W        W 2782   6.238   2.865   1.767  0.0028  0.1846 -0.1027
 1119W        W 2783   7.135   5.072   1.869  0.1619 -0.0495 -0.0335
 1120W        W 2784   5.335   6.374   2.702  0.1244  0.0168 -0.1159
 1121W        W 2785   7.154   5.547   2.193 -0.1228  0.2252  0.1771
 1122W        W 2786   6.589   7.477   4.368  0.3246 -0.0682  0.1700
 1123W        W 2787   5.973   0.994   0.593 -0.1945  0.0074 -0.2021
 1124W        W 2788   0.041   2.305   2.426  0.2048 -0.1374  0.2032
 1125W        W 2789   7.048   4.979   4.679 -0.0720 -0.1549  0.1333
 1126W        W 2790   7.419   0.515   2.899 -0.0554  0.0612 -0.2466
 1127W        W 2791   0.181   6.904   0.306 -0.0639  0.0631  0.0920
 1128W        W 2792   5.925   1.664   4.997  0.1139  0.1674  0.2917
   7.62688   7.62688   5.43068
