DSPC BILAYER SELF-ASSEMBLY
 2792
    1DSPC   NC3    1   6.906   1.105   1.968
    1DSPC   PO4    2   7.196   0.748   2.004
    1DSPC   GL1    3   6.838   0.700   2.251
    1DSPC   GL2    4   6.632   0.644   1.968
    1DSPC   C1A    5   6.754   0.858   2.689
    1DSPC   C2A    6   6.853   1.281   2.878
    1DSPC   C3A    7   6.673   1.670   2.719
    1DSPC   C4A    8   6.227   1.824   2.753
    1DSPC   C5A    9   5.912   1.700   3.061
    1DSPC   C1B   10   6.410   0.906   2.290
    1DSPC   C2B   11   6.010   0.944   2.496
    1DSPC   C3B   12   5.792   0.736   2.882
    1DSPC   C4B   13   5.434   0.588   3.122
    1DSPC   C5B   14   5.041   0.367   2.976
    2DSPC   NC3   15   3.267   3.381   4.907
    2DSPC   PO4   16   3.554   3.746   5.059
    2DSPC   GL1   17   3.492   4.216   5.117
    2DSPC   GL2   18   3.385   4.357   4.776
    2DSPC   C1A   19   3.547   4.513   5.496
    2DSPC   C2A   20   3.532   4.990   5.543
    2DSPC   C3A   21   3.697   5.422   5.373
    2DSPC   C4A   22   3.530   5.739   5.036
    2DSPC   C5A   23   3.664   5.980   4.648
    2DSPC   C1B   24   3.149   4.764   4.731
    2DSPC   C2B   25   3.008   5.240   4.704
    2DSPC   C3B   26   3.238   5.665   4.602
    2DSPC   C4B   27   3.219   6.056   4.312
    2DSPC   C5B   28   2.836   6.239   4.067
    3DSPC   NC3   29   6.994   2.535   2.684
    3DSPC   PO4   30   6.660   2.297   2.883
    3DSPC   GL1   31   6.543   2.026   2.462
    3DSPC   GL2   32   6.429   2.024   2.076
    3DSPC   C1A   33   6.326   1.603   2.321
    3DSPC   C2A   34   6.039   1.317   2.146
    3DSPC   C3A   35   5.784   1.296   1.768
    3DSPC   C4A   36   5.614   1.554   1.392
    3DSPC   C5A   37   5.285   1.838   1.205
    3DSPC   C1B   38   6.659   1.921   1.694
    3DSPC   C2B   39   6.509   2.052   1.254
    3DSPC   C3B   40   6.210   2.148   0.881
    3DSPC   C4B   41   5.795   2.258   0.611
    3DSPC   C5B   42   5.645   2.518   0.262
    4DSPC   NC3   43   6.204   2.098   5.321
    4DSPC   PO4   44   6.235   1.666   5.147
    4DSPC   GL1   45   6.344   1.339   4.821
    4DSPC   GL2   46   6.013   1.311   4.642
    4DSPC   C1A   47   6.660   0.984   4.689
    4DSPC   C2A   48   6.756   0.528   4.622
    4DSPC   C3A   49   6.648   0.130   4.888
    4DSPC   C4A   50   6.383   7.254   5.044
    4DSPC   C5A   51   6.130   6.883   5.207
    4DSPC   C1B   52   5.527   1.174   4.595
    4DSPC   C2B   53   5.133   0.849   4.632
    4DSPC   C3B   54   4.743   0.506   4.665
    4DSPC   C4B   55   4.399   0.124   4.715
    4DSPC   C5B   56   4.146   7.251   4.501
    5DSPC   NC3   57   7.438   3.794   4.565
    5DSPC   PO4   58   0.171   4.065   4.885
    5DSPC   GL1   59   0.474   4.314   5.139
    5DSPC   GL2   60   0.579   4.618   4.927
    5DSPC   C1A   61   0.862   4.166   5.401
    5DSPC   C2A   62   1.275   4.345   5.361
    5DSPC   C3A   63   1.699   4.485   5.280
    5DSPC   C4A   64   2.112   4.680   5.236
    5DSPC   C5A   65   2.251   5.069   5.051
    5DSPC   C1B   66   0.768   5.062   5.085
    5DSPC   C2B   67   1.136   5.370   5.206
    5DSPC   C3B   68   1.241   5.849   5.276
    5DSPC   C4B   69   1.394   6.318   5.417
    5DSPC   C5B   70   1.718   6.671   5.461
    6DSPC   NC3   71   0.039   1.685   5.704
    6DSPC   PO4   72   7.454   2.098   5.862
    6DSPC   GL1   73   7.306   1.782   6.122
    6DSPC   GL2   74   0.059   1.532   6.210
    6DSPC   C1A   75   6.932   1.547   6.210
    6DSPC   C2A   76   6.735   1.131   6.246
    6DSPC   C3A   77   6.946   0.730   6.366
    6DSPC   C4A   78   7.287   0.457   6.537
    6DSPC   C5A   79   0.003   0.069   6.608
    6DSPC   C1B   80   0.216   1.115   6.459
    6DSPC   C2B   81   0.282   0.624   6.581
    6DSPC   C3B   82   0.490   0.179   6.546
    6DSPC   C4B   83   0.420   7.207   6.531
    6DSPC   C5B   84   0.260   6.776   6.462
    7DSPC   NC3   85   2.568   6.044   1.748
    7DSPC   PO4   86   2.414   6.310   1.414
    7DSPC   GL1   87   2.445   6.500   1.002
    7DSPC   GL2   88   2.556   6.339   0.723
    7DSPC   C1A   89   2.304   6.778   0.652
    7DSPC   C2A   90   2.115   7.177   0.701
    7DSPC   C3A   91   2.161   0.124   0.654
    7DSPC   C4A   92   2.377   0.521   0.671
    7DSPC   C5A   93   2.799   0.626   0.593
    7DSPC   C1B   94   2.800   6.720   0.531
    7DSPC   C2B   95   2.849   6.973   0.144
    7DSPC   C3B   96   3.139   7.205   7.317
    7DSPC   C4B   97   3.267   7.224   6.854
    7DSPC   C5B   98   3.380   6.952   6.494
    8DSPC   NC3   99   6.916   4.722   3.028
    8DSPC   PO4  100   6.859   4.514   2.637
    8DSPC   GL1  101   7.197   4.200   2.572
    8DSPC   GL2  102   7.104   3.839   2.543
    8DSPC   C1A  103   0.114   4.061   2.646
    8DSPC   C2A  104   0.443   3.883   2.914
    8DSPC   C3A  105   0.410   3.793   3.367
    8DSPC   C4A  106   0.542   3.568   3.751
    8DSPC   C5A  107   0.462   3.133   3.851
    8DSPC   C1B  108   6.867   3.433   2.639
    8DSPC   C2B  109   6.883   3.063   2.906
    8DSPC   C3B  110   7.083   2.756   3.172
    8DSPC   C4B  111   7.120   2.388   3.458
    8DSPC   C5B  112   6.977   1.984   3.627
    9DSPC   NC3  113   4.794   3.567   0.088
    9DSPC   PO4  114   5.192   3.512   7.389
    9DSPC   GL1  115   4.947   3.413   7.064
    9DSPC   GL2  116   4.687   3.242   7.197
    9DSPC   C1A  117   4.920   3.048   6.794
    9DSPC   C2A  118   5.141   2.648   6.917
    9DSPC   C3A  119   5.417   2.485   7.255
    9DSPC   C4A  120   5.308   2.183   0.082
    9DSPC   C5A  121   5.086   1.786   0.127
    9DSPC   C1B  122   4.741   2.819   7.267
    9DSPC   C2B  123   4.926   2.439   7.348
    9DSPC   C3B  124   5.070   2.044   7.160
    9DSPC   C4B  125   4.849   1.621   7.169
    9DSPC   C5B  126   4.424   1.402   7.122
   10DSPC   NC3  127   1.954   4.279   5.938
   10DSPC   PO4  128   1.865   4.405   6.403
   10DSPC   GL1  129   1.393   4.528   6.480
   10DSPC   GL2  130   1.131   4.253   6.434
   10DSPC   C1A  131   1.013   4.664   6.188
   10DSPC   C2A  132   0.646   4.888   6.311
   10DSPC   C3A  133   0.220   4.798   6.451
   10DSPC   C4A  134   7.267   4.711   6.347
   10DSPC   C5A  135   6.795   4.693   6.487
   10DSPC   C1B  136   0.621   4.354   6.359
   10DSPC   C2B  137   0.107   4.287   6.363
   10DSPC   C3B  138   7.088   4.239   6.305
   10DSPC   C4B  139   6.597   4.183   6.286
   10DSPC   C5B  140   6.125   4.127   6.371
   11DSPC   NC3  141   6.298   0.656   2.809
   11DSPC   PO4  142   6.301   0.273   2.465
   11DSPC   GL1  143   5.846   0.206   2.380
   11DSPC   GL2  144   5.808   0.499   2.430
   11DSPC   C1A  145   5.370   0.202   2.279
   11DSPC   C2A  146   5.075   7.369   2.168
   11DSPC   C3A  147   4.646   7.349   2.292
   11DSPC   C4A  148   4.418   0.247   2.344
   11DSPC   C5A  149   4.420   0.694   2.503
   11DSPC   C1B  150   5.590   0.815   2.212
   11DSPC   C2B  151   5.153   0.896   2.239
   11DSPC   C3B  152   4.709   1.026   2.249
   11DSPC   C4B  153   4.263   1.200   2.288
   11DSPC   C5B  154   4.095   1.588   2.524
   12DSPC   NC3  155   2.847   2.604   1.611
   12DSPC   PO4  156   3.238   2.625   1.335
   12DSPC   GL1  157   3.021   2.925   1.018
   12DSPC   GL2  158   3.232   3.196   0.865
   12DSPC   C1A  159   2.812   3.063   0.609
   12DSPC   C2A  160   2.865   3.185   0.197
   12DSPC   C3A  161   2.627   3.390   7.350
   12DSPC   C4A  162   2.662   3.599   6.968
   12DSPC   C5A  163   2.653   4.051   6.912
   12DSPC   C1B  164   3.047   3.516   0.582
   12DSPC   C2B  165   3.065   3.961   0.433
   12DSPC   C3B  166   3.369   4.335   0.479
   12DSPC   C4B  167   3.605   4.737   0.425
   12DSPC   C5B  168   3.864   5.091   0.347
   13DSPC   NC3  169   2.092   5.050   6.560
   13DSPC   PO4  170   2.197   5.405   6.795
   13DSPC   GL1  171   1.985   5.478   7.202
   13DSPC   GL2  172   2.208   5.397   7.480
   13DSPC   C1A  173   1.709   5.772   7.479
   13DSPC   C2A  174   1.411   6.159   0.109
   13DSPC   C3A  175   1.093   6.554   0.089
   13DSPC   C4A  176   0.747   6.860   7.383
   13DSPC   C5A  177   0.375   7.141   7.447
   13DSPC   C1B  178   2.158   5.782   0.244
   13DSPC   C2B  179   2.113   6.146   0.537
   13DSPC   C3B  180   1.991   6.438   0.866
   13DSPC   C4B  181   1.593   6.596   1.022
   13DSPC   C5B  182   1.220   6.746   1.237
   14DSPC   NC3  183   7.275   6.964   5.620
   14DSPC   PO4  184   6.992   7.162   5.300
   14DSPC   GL1  185   6.998   0.148   5.213
   14DSPC   GL2  186   7.144   0.287   4.924
   14DSPC   C1A  187   6.790   0.602   5.115
   14DSPC   C2A  188   6.877   1.061   5.148
   14DSPC   C3A  189   6.822   1.463   4.923
   14DSPC   C4A  190   6.913   1.702   4.531
   14DSPC   C5A  191   7.110   1.838   4.130
   14DSPC   C1B  192   7.202   0.740   4.845
   14DSPC   C2B  193   0.054   0.950   4.625
   14DSPC   C3B  194   0.377   0.962   4.295
   14DSPC   C4B  195   0.347   1.125   3.852
   14DSPC   C5B  196   0.463   1.322   3.428
   15DSPC   NC3  197   1.272   7.039   6.204
   15DSPC   PO4  198   1.444   6.725   6.442
   15DSPC   GL1  199   1.096   6.973   6.651
   15DSPC   GL2  200   0.771   6.840   6.568
   15DSPC   C1A  201   0.779   7.241   6.919
   15DSPC   C2A  202   0.335   7.394   6.998
   15DSPC   C3A  203   7.386   7.470   7.100
   15DSPC   C4A  204   6.956   7.313   7.216
   15DSPC   C5A  205   6.738   6.897   7.176
   15DSPC   C1B  206   0.453   6.853   6.935
   15DSPC   C2B  207   0.224   6.682   7.289
   15DSPC   C3B  208   7.285   6.510   7.389
   15DSPC   C4B  209   6.839   6.445   7.396
   15DSPC   C5B  210   6.423   6.356   7.200
   16DSPC   NC3  211   3.388   5.887   1.656
   16DSPC   PO4  212   2.924   5.692   1.781
   16DSPC   GL1  213   2.503   5.557   1.654
   16DSPC   GL2  214   2.240   5.727   1.514
   16DSPC   C1A  215   2.244   5.210   1.442
   16DSPC   C2A  216   2.111   4.823   1.657
   16DSPC   C3A  217   2.030   4.703   2.109
   16DSPC   C4A  218   2.034   4.881   2.531
   16DSPC   C5A  219   2.055   5.099   2.943
   16DSPC   C1B  220   2.268   5.714   2.032
   16DSPC   C2B  221   2.248   5.889   2.501
   16DSPC   C3B  222   2.217   6.246   2.853
   16DSPC   C4B  223   2.272   6.670   3.124
   16DSPC   C5B  224   2.148   7.034   3.439
   17DSPC   NC3  225   0.741   4.089   3.653
   17DSPC   PO4  226   1.098   3.848   3.567
   17DSPC   GL1  227   0.818   3.615   3.226
   17DSPC   GL2  228   0.602   3.294   3.319
   17DSPC   C1A  229   0.834   3.297   2.870
   17DSPC   C2A  230   1.172   2.997   2.759
   17DSPC   C3A  231   1.423   2.660   2.969
   17DSPC   C4A  232   1.297   2.353   3.309
   17DSPC   C5A  233   0.972   2.240   3.625
   17DSPC   C1B  234   0.449   2.959   3.021
   17DSPC   C2B  235   0.378   2.505   2.918
   17DSPC   C3B  236   0.322   2.062   3.070
   17DSPC   C4B  237   0.132   1.720   3.318
   17DSPC   C5B  238   7.235   1.545   3.497
   18DSPC   NC3  239   5.745   2.117   2.795
   18DSPC   PO4  240   5.342   2.234   2.616
   18DSPC   GL1  241   4.933   2.052   2.729
   18DSPC   GL2  242   4.915   1.713   2.860
   18DSPC   C1A  243   4.482   1.889   2.691
   18DSPC   C2A  244   4.300   1.695   3.016
   18DSPC   C3A  245   4.331   1.335   3.269
   18DSPC   C4A  246   4.606   1.016   3.419
   18DSPC   C5A  247   4.968   0.790   3.252
   18DSPC   C1B  248   4.762   1.607   3.281
   18DSPC   C2B  249   4.624   1.450   3.695
   18DSPC   C3B  250   4.705   1.452   4.133
   18DSPC   C4B  251   5.069   1.407   4.391
   18DSPC   C5B  252   5.075   1.318   4.826
   19DSPC   NC3  253   4.202   2.565   2.736
   19DSPC   PO4  254   4.263   2.371   3.131
   19DSPC   GL1  255   4.474   2.304   3.538
   19DSPC   GL2  256   4.235   2.253   3.788
   19DSPC   C1A  257   4.716   2.352   3.958
   19DSPC   C2A  258   5.055   2.372   4.285
   19DSPC   C3A  259   5.063   2.399   4.736
   19DSPC   C4A  260   4.801   2.666   5.009
   19DSPC   C5A  261   4.372   2.570   5.049
   19DSPC   C1B  262   4.249   2.338   4.214
   19DSPC   C2B  263   4.205   2.190   4.620
   19DSPC   C3B  264   3.814   2.038   4.768
   19DSPC   C4B  265   3.413   1.830   4.764
   19DSPC   C5B  266   2.997   1.971   4.940
   20DSPC   NC3  267   1.914   4.332   0.919
   20DSPC   PO4  268   1.506   4.137   1.144
   20DSPC   GL1  269   1.140   4.043   1.538
   20DSPC   GL2  270   0.749   4.056   1.537
   20DSPC   C1A  271   0.896   3.913   1.990
   20DSPC   C2A  272   0.585   4.013   2.374
   20DSPC   C3A  273   0.521   4.366   2.705
   20DSPC   C4A  274   0.507   4.823   2.639
   20DSPC   C5A  275   0.743   5.201   2.802
   20DSPC   C1B  276   0.508   4.268   1.909
   20DSPC   C2B  277   0.231   4.405   2.278
   20DSPC   C3B  278   0.041   4.593   2.669
   20DSPC   C4B  279   7.296   4.997   2.717
   20DSPC   C5B  280   7.005   5.261   2.938
   21DSPC   NC3  281   2.185   4.731   6.184
   21DSPC   PO4  282   2.085   5.184   6.048
   21DSPC   GL1  283   1.819   5.211   5.680
   21DSPC   GL2  284   1.745   5.000   5.386
   21DSPC   C1A  285   1.618   5.503   5.399
   21DSPC   C2A  286   1.590   5.347   4.999
   21DSPC   C3A  287   1.523   4.951   4.777
   21DSPC   C4A  288   1.465   4.474   4.833
   21DSPC   C5A  289   1.505   4.039   5.023
   21DSPC   C1B  290   1.291   4.860   5.216
   21DSPC   C2B  291   1.044   4.764   4.790
   21DSPC   C3B  292   0.701   4.692   4.441
   21DSPC   C4B  293   0.285   4.528   4.446
   21DSPC   C5B  294   0.048   4.222   4.214
   22DSPC   NC3  295   4.057   6.207   5.950
   22DSPC   PO4  296   3.965   6.610   5.730
   22DSPC   GL1  297   4.039   7.023   5.921
   22DSPC   GL2  298   4.252   7.308   5.805
   22DSPC   C1A  299   3.945   7.357   6.242
   22DSPC   C2A  300   4.034   0.123   6.604
   22DSPC   C3A  301   4.169   0.572   6.675
   22DSPC   C4A  302   4.435   0.956   6.803
   22DSPC   C5A  303   4.733   1.325   6.724
   22DSPC   C1B  304   4.428   0.258   5.754
   22DSPC   C2B  305   4.544   0.696   5.549
   22DSPC   C3B  306   4.797   1.118   5.437
   22DSPC   C4B  307   5.195   1.396   5.307
   22DSPC   C5B  308   5.491   1.600   4.948
   23DSPC   NC3  309   3.072   7.475   2.806
   23DSPC   PO4  310   3.384   0.301   2.834
   23DSPC   GL1  311   3.245   0.727   2.852
   23DSPC   GL2  312   3.272   0.687   3.184
   23DSPC   C1A  313   3.120   1.159   3.079
   23DSPC   C2A  314   3.037   1.401   3.470
   23DSPC   C3A  315   3.285   1.292   3.846
   23DSPC   C4A  316   3.730   1.385   3.835
   23DSPC   C5A  317   4.121   1.181   3.697
   23DSPC   C1B  318   3.596   0.986   2.966
   23DSPC   C2B  319   4.032   0.927   2.812
   23DSPC   C3B  320   4.391   1.196   2.778
   23DSPC   C4B  321   4.637   1.465   2.504
   23DSPC   C5B  322   4.980   1.758   2.352
   24DSPC   NC3  323   2.566   5.182   7.115
   24DSPC   PO4  324   2.512   4.881   6.744
   24DSPC   GL1  325   2.199   4.622   6.925
   24DSPC   GL2  326   1.870   4.681   6.827
   24DSPC   C1A  327   2.155   4.176   7.006
   24DSPC   C2A  328   1.895   3.912   7.270
   24DSPC   C3A  329   1.444   3.970   7.384
   24DSPC   C4A  330   1.009   3.969   7.494
   24DSPC   C5A  331   0.586   3.990   0.155
   24DSPC   C1B  332   1.420   4.689   6.929
   24DSPC   C2B  333   1.169   4.436   7.262
   24DSPC   C3B  334   0.888   4.447   0.140
   24DSPC   C4B  335   0.500   4.448   0.413
   24DSPC   C5B  336   0.049   4.286   0.438
   25DSPC   NC3  337   5.963   3.944   3.897
   25DSPC   PO4  338   5.606   3.664   3.866
   25DSPC   GL1  339   5.728   3.944   3.503
   25DSPC   GL2  340   6.033   3.755   3.351
   25DSPC   C1A  341   6.073   4.264   3.401
   25DSPC   C2A  342   6.450   4.242   3.124
   25DSPC   C3A  343   6.589   3.942   2.778
   25DSPC   C4A  344   6.551   3.733   2.373
   25DSPC   C5A  345   6.687   3.318   2.182
   25DSPC   C1B  346   6.204   3.591   2.907
   25DSPC   C2B  347   6.255   3.322   2.483
   25DSPC   C3B  348   6.141   3.239   2.015
   25DSPC   C4B  349   6.104   2.937   1.643
   25DSPC   C5B  350   6.130   2.898   1.165
   26DSPC   NC3  351   5.907   5.468   6.291
   26DSPC   PO4  352   5.902   5.189   5.927
   26DSPC   GL1  353   5.982   5.010   5.529
   26DSPC   GL2  354   5.757   4.855   5.311
   26DSPC   C1A  355   6.210   5.108   5.168
   26DSPC   C2A  356   6.667   4.949   5.061
   26DSPC   C3A  357   7.062   4.810   4.840
   26DSPC   C4A  358   7.235   4.507   4.520
   26DSPC   C5A  359   7.073   4.114   4.372
   26DSPC   C1B  360   5.965   4.503   5.130
   26DSPC   C2B  361   5.983   4.346   4.679
   26DSPC   C3B  362   6.114   4.326   4.228
   26DSPC   C4B  363   6.348   4.290   3.851
   26DSPC   C5B  364   6.478   3.958   3.546
   27DSPC   NC3  365   3.159   1.897   3.199
   27DSPC   PO4  366   2.882   2.133   3.471
   27DSPC   GL1  367   3.000   2.548   3.583
   27DSPC   GL2  368   2.702   2.591   3.766
   27DSPC   C1A  369   3.102   2.828   3.972
   27DSPC   C2A  370   3.317   3.070   4.320
   27DSPC   C3A  371   3.314   3.539   4.396
   27DSPC   C4A  372   3.105   3.942   4.611
   27DSPC   C5A  373   2.851   4.316   4.798
   27DSPC   C1B  374   2.557   2.908   4.115
   27DSPC   C2B  375   2.416   3.350   4.325
   27DSPC   C3B  376   2.393   3.717   4.672
   27DSPC   C4B  377   2.450   4.035   5.033
   27DSPC   C5B  378   2.578   4.414   5.266
   28DSPC   NC3  379   4.938   3.113   5.601
   28DSPC   PO4  380   4.544   3.031   5.848
   28DSPC   GL1  381   4.841   3.338   5.995
   28DSPC   GL2  382   4.745   3.649   6.112
   28DSPC   C1A  383   5.123   3.279   6.351
   28DSPC   C2A  384   5.305   3.421   6.741
   28DSPC   C3A  385   5.547   3.800   6.845
   28DSPC   C4A  386   5.648   4.160   6.574
   28DSPC   C5A  387   5.501   4.611   6.501
   28DSPC   C1B  388   4.858   4.003   6.412
   28DSPC   C2B  389   4.700   4.216   6.815
   28DSPC   C3B  390   4.590   4.600   6.935
   28DSPC   C4B  391   4.429   4.911   6.645
   28DSPC   C5B  392   4.505   5.350   6.659
   29DSPC   NC3  393   4.251   6.861   1.952
   29DSPC   PO4  394   3.959   7.044   2.234
   29DSPC   GL1  395   4.170   6.746   2.422
   29DSPC   GL2  396   4.502   6.862   2.396
   29DSPC   C1A  397   4.350   6.349   2.499
   29DSPC   C2A  398   4.360   5.939   2.270
   29DSPC   C3A  399   4.702   5.627   2.325
   29DSPC   C4A  400   5.115   5.726   2.480
   29DSPC   C5A  401   5.389   6.051   2.660
   29DSPC   C1B  402   4.964   6.946   2.435
   29DSPC   C2B  403   5.340   6.784   2.204
   29DSPC   C3B  404   5.645   6.437   2.347
   29DSPC   C4B  405   5.902   6.113   2.583
   29DSPC   C5B  406   5.809   5.751   2.852
   30DSPC   NC3  407   1.101   4.337   4.460
   30DSPC   PO4  408   1.258   4.690   4.137
   30DSPC   GL1  409   0.931   4.585   3.854
   30DSPC   GL2  410   0.744   4.881   3.909
   30DSPC   C1A  411   0.660   4.567   3.485
   30DSPC   C2A  412   0.392   4.297   3.216
   30DSPC   C3A  413   7.486   4.050   3.168
   30DSPC   C4A  414   7.041   4.079   3.378
   30DSPC   C5A  415   6.762   4.407   3.561
   30DSPC   C1B  416   0.341   4.926   3.663
   30DSPC   C2B  417   0.050   5.247   3.562
   30DSPC   C3B  418   7.109   5.279   3.433
   30DSPC   C4B  419   6.689   5.074   3.328
   30DSPC   C5B  420   6.251   5.217   3.245
   31DSPC   NC3  421   3.756   0.505   3.099
   31DSPC   PO4  422   3.660   0.691   3.529
   31DSPC   GL1  423   3.479   0.277   3.494
   31DSPC   GL2  424   3.480   0.313   3.851
   31DSPC   C1A  425   3.481   7.330   3.708
   31DSPC   C2A  426   3.282   7.088   4.036
   31DSPC   C3A  427   3.404   6.982   4.460
   31DSPC   C4A  428   3.803   6.878   4.610
   31DSPC   C5A  429   4.225   6.726   4.654
   31DSPC   C1B  430   3.728   0.389   4.220
   31DSPC   C2B  431   3.894   0.204   4.603
   31DSPC   C3B  432   3.926   7.402   4.932
   31DSPC   C4B  433   4.245   7.104   5.018
   31DSPC   C5B  434   4.661   6.956   5.189
   32DSPC   NC3  435   1.506   4.499   6.038
   32DSPC   PO4  436   1.804   4.764   5.852
   32DSPC   GL1  437   2.156   4.870   5.666
   32DSPC   GL2  438   2.320   4.568   5.703
   32DSPC   C1A  439   2.574   4.903   5.434
   32DSPC   C2A  440   3.000   4.848   5.600
   32DSPC   C3A  441   3.249   4.645   5.912
   32DSPC   C4A  442   3.677   4.564   6.002
   32DSPC   C5A  443   3.991   4.303   6.158
   32DSPC   C1B  444   2.771   4.423   5.740
   32DSPC   C2B  445   3.168   4.196   5.677
   32DSPC   C3B  446   3.304   3.764   5.692
   32DSPC   C4B  447   3.614   3.498   5.901
   32DSPC   C5B  448   3.648   3.331   6.353
   33DSPC   NC3  449   6.290   4.576   7.214
   33DSPC   PO4  450   6.546   4.254   7.159
   33DSPC   GL1  451   6.444   4.486   6.764
   33DSPC   GL2  452   6.363   4.845   6.785
   33DSPC   C1A  453   6.300   4.612   6.338
   33DSPC   C2A  454   5.890   4.542   6.158
   33DSPC   C3A  455   5.480   4.650   5.975
   33DSPC   C4A  456   5.159   4.967   5.945
   33DSPC   C5A  457   4.975   5.388   5.971
   33DSPC   C1B  458   6.366   5.181   6.453
   33DSPC   C2B  459   6.441   5.653   6.346
   33DSPC   C3B  460   6.682   6.085   6.356
   33DSPC   C4B  461   6.919   6.508   6.324
   33DSPC   C5B  462   6.946   6.981   6.266
   34DSPC   NC3  463   1.701   4.373   7.199
   34DSPC   PO4  464   1.724   4.475   0.167
   34DSPC   GL1  465   1.304   4.226   0.238
   34DSPC   GL2  466   1.333   3.857   0.358
   34DSPC   C1A  467   0.919   4.125   0.539
   34DSPC   C2A  468   0.452   4.011   0.656
   34DSPC   C3A  469   0.008   3.886   0.764
   34DSPC   C4A  470   7.269   3.525   0.582
   34DSPC   C5A  471   7.379   3.057   0.667
   34DSPC   C1B  472   0.912   3.638   0.386
   34DSPC   C2B  473   0.701   3.252   0.589
   34DSPC   C3B  474   0.373   3.014   0.838
   34DSPC   C4B  475   0.209   2.615   0.789
   34DSPC   C5B  476   0.513   2.326   0.528
   35DSPC   NC3  477   1.748   2.075   4.542
   35DSPC   PO4  478   1.846   1.673   4.722
   35DSPC   GL1  479   2.259   1.752   4.556
   35DSPC   GL2  480   2.243   1.918   4.233
   35DSPC   C1A  481   2.558   1.520   4.300
   35DSPC   C2A  482   2.464   1.139   4.083
   35DSPC   C3A  483   2.529   0.687   4.049
   35DSPC   C4A  484   2.882   0.596   3.824
   35DSPC   C5A  485   3.058   0.908   3.581
   35DSPC   C1B  486   2.700   1.963   4.082
   35DSPC   C2B  487   3.107   1.753   3.998
   35DSPC   C3B  488   3.415   1.733   3.641
   35DSPC   C4B  489   3.539   1.425   3.313
   35DSPC   C5B  490   3.896   1.393   2.999
   36DSPC   NC3  491   2.026   1.414   4.305
   36DSPC   PO4  492   1.754   1.765   4.146
   36DSPC   GL1  493   1.565   1.416   4.454
   36DSPC   GL2  494   1.751   1.154   4.692
   36DSPC   C1A  495   1.258   1.349   4.813
   36DSPC   C2A  496   0.885   1.067   4.781
   36DSPC   C3A  497   0.858   0.701   4.474
   36DSPC   C4A  498   0.886   0.369   4.123
   36DSPC   C5A  499   0.938   0.377   3.658
   36DSPC   C1B  500   1.740   0.672   4.629
   36DSPC   C2B  501   1.878   0.243   4.456
   36DSPC   C3B  502   1.955   7.274   4.559
   36DSPC   C4B  503   2.174   7.003   4.240
   36DSPC   C5B  504   2.432   7.176   3.867
   37DSPC   NC3  505   7.135   6.632   0.954
   37DSPC   PO4  506   7.457   6.416   1.223
   37DSPC   GL1  507   0.078   6.829   1.074
   37DSPC   GL2  508   7.475   6.941   0.723
   37DSPC   C1A  509   0.463   6.966   0.832
   37DSPC   C2A  510   0.684   7.363   0.738
   37DSPC   C3A  511   0.987   0.158   0.919
   37DSPC   C4A  512   1.430   0.332   0.943
   37DSPC   C5A  513   1.855   0.511   0.820
   37DSPC   C1B  514   0.146   7.313   0.972
   37DSPC   C2B  515   0.520   0.028   1.202
   37DSPC   C3B  516   0.632   0.480   1.133
   37DSPC   C4B  517   0.654   0.880   0.869
   37DSPC   C5B  518   0.578   1.335   0.723
   38DSPC   NC3  519   2.227   3.096   7.286
   38DSPC   PO4  520   2.075   2.796   0.096
   38DSPC   GL1  521   2.089   2.395   0.262
   38DSPC   GL2  522   1.905   2.248   0.007
   38DSPC   C1A  523   2.024   2.060   0.584
   38DSPC   C2A  524   1.803   1.694   0.656
   38DSPC   C3A  525   1.417   1.573   0.750
   38DSPC   C4A  526   1.068   1.803   0.900
   38DSPC   C5A  527   0.672   1.891   0.750
   38DSPC   C1B  528   1.598   2.052   0.275
   38DSPC   C2B  529   1.181   1.970   0.381
   38DSPC   C3B  530   0.768   1.961   0.237
   38DSPC   C4B  531   0.336   1.859   0.373
   38DSPC   C5B  532   0.033   2.145   0.616
   39DSPC   NC3  533   5.111   1.300   2.571
   39DSPC   PO4  534   5.310   1.406   2.959
   39DSPC   GL1  535   5.204   0.948   2.886
   39DSPC   GL2  536   4.906   0.820   2.691
   39DSPC   C1A  537   5.357   0.596   2.626
   39DSPC   C2A  538   5.482   0.172   2.761
   39DSPC   C3A  539   5.340   7.279   2.964
   39DSPC   C4A  540   5.026   6.940   2.959
   39DSPC   C5A  541   4.777   6.652   3.218
   39DSPC   C1B  542   4.913   0.393   2.472
   39DSPC   C2B  543   4.978   7.464   2.652
   39DSPC   C3B  544   4.625   7.179   2.777
   39DSPC   C4B  545   4.339   6.824   2.873
   39DSPC   C5B  546   3.972   6.558   2.796
   40DSPC   NC3  547   3.993   1.869   6.675
   40DSPC   PO4  548   4.075   1.439   6.504
   40DSPC   GL1  549   4.440   1.704   6.659
   40DSPC   GL2  550   4.450   1.899   6.992
   40DSPC   C1A  551   4.893   1.821   6.704
   40DSPC   C2A  552   5.291   1.662   6.909
   40DSPC   C3A  553   5.510   1.790   7.303
   40DSPC   C4A  554   5.794   2.140   7.432
   40DSPC   C5A  555   6.122   2.308   0.219
   40DSPC   C1B  556   4.650   2.024   7.430
   40DSPC   C2B  557   4.855   2.207   0.325
   40DSPC   C3B  558   5.229   2.402   0.532
   40DSPC   C4B  559   5.372   2.436   0.954
   40DSPC   C5B  560   5.505   2.804   1.213
   41DSPC   NC3  561   1.745   5.173   6.915
   41DSPC   PO4  562   2.110   5.001   7.172
   41DSPC   GL1  563   2.444   4.982   0.026
   41DSPC   GL2  564   2.526   4.675   0.214
   41DSPC   C1A  565   2.781   5.175   0.279
   41DSPC   C2A  566   3.074   5.417   0.546
   41DSPC   C3A  567   3.123   5.384   0.992
   41DSPC   C4A  568   3.183   5.779   1.200
   41DSPC   C5A  569   3.063   6.192   1.374
   41DSPC   C1B  570   2.625   4.410   0.583
   41DSPC   C2B  571   2.572   4.606   1.006
   41DSPC   C3B  572   2.586   4.790   1.445
   41DSPC   C4B  573   2.578   5.110   1.797
   41DSPC   C5B  574   2.252   5.178   2.111
   42DSPC   NC3  575   5.173   5.322   0.600
   42DSPC   PO4  576   5.395   5.573   0.984
   42DSPC   GL1  577   5.808   5.540   1.315
   42DSPC   GL2  578   5.914   5.695   1.668
   42DSPC   C1A  579   6.297   5.486   1.393
   42DSPC   C2A  580   6.734   5.563   1.594
   42DSPC   C3A  581   7.160   5.786   1.551
   42DSPC   C4A  582   7.343   6.049   1.859
   42DSPC   C5A  583   7.164   6.309   2.129
   42DSPC   C1B  584   6.282   5.498   1.906
   42DSPC   C2B  585   6.639   5.576   2.159
   42DSPC   C3B  586   6.957   5.845   2.401
   42DSPC   C4B  587   7.079   6.195   2.611
   42DSPC   C5B  588   7.028   6.624   2.540
   43DSPC   NC3  589   4.897   5.564   2.974
   43DSPC   PO4  590   4.456   5.462   3.192
   43DSPC   GL1  591   4.548   5.876   3.087
   43DSPC   GL2  592   4.517   5.868   2.747
   43DSPC   C1A  593   4.928   6.121   2.940
   43DSPC   C2A  594   5.236   6.466   3.000
   43DSPC   C3A  595   5.450   6.805   2.720
   43DSPC   C4A  596   5.453   7.207   2.474
   43DSPC   C5A  597   5.689   7.342   2.110
   43DSPC   C1B  598   4.789   6.116   2.442
   43DSPC   C2B  599   4.769   6.499   2.148
   43DSPC   C3B  600   4.785   6.952   1.952
   43DSPC   C4B  601   4.887   7.334   1.698
   43DSPC   C5B  602   5.102   7.482   1.332
   44DSPC   NC3  603   2.612   1.660   1.258
   44DSPC   PO4  604   2.668   1.369   1.584
   44DSPC   GL1  605   2.535   1.208   1.149
   44DSPC   GL2  606   2.269   1.384   0.996
   44DSPC   C1A  607   2.534   1.043   0.717
   44DSPC   C2A  608   2.184   0.942   0.462
   44DSPC   C3A  609   2.038   0.938   0.016
   44DSPC   C4A  610   1.855   1.361   7.310
   44DSPC   C5A  611   1.621   1.786   7.285
   44DSPC   C1B  612   2.250   1.454   0.548
   44DSPC   C2B  613   2.278   1.359   0.128
   44DSPC   C3B  614   2.308   1.642   7.287
   44DSPC   C4B  615   2.230   2.075   7.148
   44DSPC   C5B  616   2.077   2.292   6.778
   45DSPC   NC3  617   7.015   2.223   5.504
   45DSPC   PO4  618   6.607   2.426   5.338
   45DSPC   GL1  619   6.189   2.608   5.240
   45DSPC   GL2  620   5.945   2.445   5.029
   45DSPC   C1A  621   5.742   2.719   5.387
   45DSPC   C2A  622   5.532   3.097   5.293
   45DSPC   C3A  623   5.699   3.497   5.180
   45DSPC   C4A  624   5.915   3.625   4.851
   45DSPC   C5A  625   6.333   3.611   4.669
   45DSPC   C1B  626   5.872   2.910   4.927
   45DSPC   C2B  627   6.021   3.190   4.605
   45DSPC   C3B  628   6.140   3.436   4.220
   45DSPC   C4B  629   6.314   3.549   3.807
   45DSPC   C5B  630   6.397   3.311   3.420
   46DSPC   NC3  631   0.088   3.261   3.252
   46DSPC   PO4  632   0.007   3.400   2.805
   46DSPC   GL1  633   7.488   3.264   2.394
   46DSPC   GL2  634   7.212   3.439   2.246
   46DSPC   C1A  635   0.090   3.247   1.975
   46DSPC   C2A  636   0.023   2.906   1.673
   46DSPC   C3A  637   7.406   2.531   1.474
   46DSPC   C4A  638   7.315   2.360   1.066
   46DSPC   C5A  639   6.917   2.176   0.916
   46DSPC   C1B  640   7.111   3.100   1.962
   46DSPC   C2B  641   6.977   2.795   1.686
   46DSPC   C3B  642   6.569   2.777   1.453
   46DSPC   C4B  643   6.229   2.465   1.419
   46DSPC   C5B  644   5.771   2.496   1.550
   47DSPC   NC3  645   5.089   4.724   4.963
   47DSPC   PO4  646   4.855   4.399   4.772
   47DSPC   GL1  647   5.332   4.295   4.858
   47DSPC   GL2  648   5.565   4.595   4.843
   47DSPC   C1A  649   5.742   4.074   5.075
   47DSPC   C2A  650   6.206   4.019   4.990
   47DSPC   C3A  651   6.452   4.124   4.629
   47DSPC   C4A  652   6.646   4.373   4.294
   47DSPC   C5A  653   6.633   4.703   3.975
   47DSPC   C1B  654   5.966   4.866   4.783
   47DSPC   C2B  655   6.375   5.149   4.708
   47DSPC   C3B  656   6.840   5.262   4.708
   47DSPC   C4B  657   7.299   5.381   4.702
   47DSPC   C5B  658   0.198   5.433   4.427
   48DSPC   NC3  659   6.719   3.804   4.993
   48DSPC   PO4  660   6.979   3.567   4.689
   48DSPC   GL1  661   7.223   3.819   4.979
   48DSPC   GL2  662   0.024   3.658   5.156
   48DSPC   C1A  663   7.141   4.171   5.251
   48DSPC   C2A  664   7.471   4.428   5.406
   48DSPC   C3A  665   0.373   4.284   5.590
   48DSPC   C4A  666   0.744   4.359   5.851
   48DSPC   C5A  667   1.156   4.173   5.857
   48DSPC   C1B  668   0.354   3.618   5.518
   48DSPC   C2B  669   0.812   3.703   5.618
   48DSPC   C3B  670   1.258   3.832   5.475
   48DSPC   C4B  671   1.678   4.037   5.532
   48DSPC   C5B  672   2.112   4.199   5.423
   49DSPC   NC3  673   2.661   6.609   5.004
   49DSPC   PO4  674   2.637   6.190   5.190
   49DSPC   GL1  675   2.947   6.443   5.364
   49DSPC   GL2  676   3.196   6.213   5.395
   49DSPC   C1A  677   3.110   6.635   5.762
   49DSPC   C2A  678   3.425   6.592   6.121
   49DSPC   C3A  679   3.710   6.296   6.338
   49DSPC   C4A  680   3.841   5.844   6.268
   49DSPC   C5A  681   3.772   5.466   5.976
   49DSPC   C1B  682   3.611   6.008   5.469
   49DSPC   C2B  683   3.987   5.788   5.607
   49DSPC   C3B  684   4.232   5.702   5.961
   49DSPC   C4B  685   4.474   5.361   6.145
   49DSPC   C5B  686   4.736   4.984   6.249
   50DSPC   NC3  687   0.257   7.295   0.443
   50DSPC   PO4  688   7.403   0.020   0.269
   50DSPC   GL1  689   0.214   0.116   7.432
   50DSPC   GL2  690   0.464   0.221   0.165
   50DSPC   C1A  691   0.435   0.397   7.075
   50DSPC   C2A  692   0.652   0.831   6.962
   50DSPC   C3A  693   0.731   1.231   7.233
   50DSPC   C4A  694   0.663   1.461   0.152
   50DSPC   C5A  695   0.970   1.535   0.481
   50DSPC   C1B  696   0.765   0.591   0.073
   50DSPC   C2B  697   1.204   0.744   0.154
   50DSPC   C3B  698   1.540   1.037   0.029
   50DSPC   C4B  699   1.813   1.256   0.331
   50DSPC   C5B  700   1.836   1.189   0.748
   51DSPC   NC3  701   1.549   3.630   7.022
   51DSPC   PO4  702   1.118   3.573   6.967
   51DSPC   GL1  703   1.005   3.178   7.055
   51DSPC   GL2  704   1.221   2.935   7.062
   51DSPC   C1A  705   0.793   2.920   7.362
   51DSPC   C2A  706   0.445   2.637   7.393
   51DSPC   C3A  707   0.379   2.221   0.021
   51DSPC   C4A  708   0.421   1.783   7.348
   51DSPC   C5A  709   0.326   1.458   7.010
   51DSPC   C1B  710   1.149   2.509   7.129
   51DSPC   C2B  711   1.256   2.155   7.412
   51DSPC   C3B  712   1.100   1.737   7.404
   51DSPC   C4B  713   1.229   1.392   7.132
   51DSPC   C5B  714   1.153   0.929   7.170
   52DSPC   NC3  715   3.825   6.565   6.777
   52DSPC   PO4  716   3.521   6.666   7.100
   52DSPC   GL1  717   3.503   6.562   0.037
   52DSPC   GL2  718   3.737   6.590   0.312
   52DSPC   C1A  719   3.469   6.171   0.255
   52DSPC   C2A  720   3.350   5.887   0.561
   52DSPC   C3A  721   3.480   5.664   0.814
   52DSPC   C4A  722   3.649   5.282   0.778
   52DSPC   C5A  723   4.113   5.290   0.758
   52DSPC   C1B  724   3.982   6.181   0.278
   52DSPC   C2B  725   4.340   5.919   0.401
   52DSPC   C3B  726   4.432   5.662   0.733
   52DSPC   C4B  727   4.688   5.305   0.795
   52DSPC   C5B  728   4.958   4.926   0.883
   53DSPC   NC3  729   4.685   2.768   1.583
   53DSPC   PO4  730   4.867   3.115   1.758
   53DSPC   GL1  731   4.425   3.294   1.696
   53DSPC   GL2  732   4.362   3.638   1.736
   53DSPC   C1A  733   4.066   3.419   1.392
   53DSPC   C2A  734   3.822   3.708   1.071
   53DSPC   C3A  735   3.433   3.732   0.845
   53DSPC   C4A  736   3.051   3.925   0.936
   53DSPC   C5A  737   2.682   3.808   0.768
   53DSPC   C1B  738   3.945   3.792   1.830
   53DSPC   C2B  739   3.477   3.872   1.936
   53DSPC   C3B  740   3.082   4.099   1.983
   53DSPC   C4B  741   2.847   4.431   2.212
   53DSPC   C5B  742   2.437   4.550   2.439
   54DSPC   NC3  743   5.074   2.682   2.560
   54DSPC   PO4  744   5.347   2.539   2.206
   54DSPC   GL1  745   5.357   2.456   1.777
   54DSPC   GL2  746   5.205   2.745   1.614
   54DSPC   C1A  747   5.148   2.300   1.393
   54DSPC   C2A  748   4.718   2.359   1.252
   54DSPC   C3A  749   4.438   2.711   1.102
   54DSPC   C4A  750   4.091   3.039   1.038
   54DSPC   C5A  751   3.658   3.229   1.127
   54DSPC   C1B  752   4.995   2.766   1.156
   54DSPC   C2B  753   4.771   3.021   0.817
   54DSPC   C3B  754   4.647   3.403   0.600
   54DSPC   C4B  755   4.589   3.854   0.604
   54DSPC   C5B  756   4.634   4.247   0.415
   55DSPC   NC3  757   3.700   5.447   2.304
   55DSPC   PO4  758   3.774   5.743   1.949
   55DSPC   GL1  759   3.851   5.855   1.529
   55DSPC   GL2  760   3.833   6.178   1.644
   55DSPC   C1A  761   3.627   6.053   1.179
   55DSPC   C2A  762   3.366   6.433   1.059
   55DSPC   C3A  763   2.941   6.544   0.994
   55DSPC   C4A  764   2.675   6.923   0.977
   55DSPC   C5A  765   2.633   7.209   0.603
   55DSPC   C1B  766   3.515   6.412   1.544
   55DSPC   C2B  767   3.562   6.827   1.429
   55DSPC   C3B  768   3.519   7.292   1.376
   55DSPC   C4B  769   3.269   0.201   1.437
   55DSPC   C5B  770   3.023   0.590   1.529
   56DSPC   NC3  771   6.786   0.215   2.262
   56DSPC   PO4  772   7.150   0.185   1.981
   56DSPC   GL1  773   7.451   0.072   1.627
   56DSPC   GL2  774   0.001   7.266   1.460
   56DSPC   C1A  775   0.074   0.262   1.189
   56DSPC   C2A  776   0.341   0.257   0.772
   56DSPC   C3A  777   0.721   0.451   0.583
   56DSPC   C4A  778   1.124   0.681   0.685
   56DSPC   C5A  779   1.486   0.863   0.948
   56DSPC   C1B  780   0.392   7.056   1.347
   56DSPC   C2B  781   0.835   7.109   1.159
   56DSPC   C3B  782   1.274   7.211   1.016
   56DSPC   C4B  783   1.736   7.095   1.067
   56DSPC   C5B  784   2.139   6.863   1.134
   57DSPC   NC3  785   4.264   4.234   7.128
   57DSPC   PO4  786   3.809   4.360   7.124
   57DSPC   GL1  787   3.434   4.231   7.297
   57DSPC   GL2  788   3.430   4.005   0.084
   57DSPC   C1A  789   3.121   3.970   7.137
   57DSPC   C2A  790   3.161   3.540   7.031
   57DSPC   C3A  791   3.025   3.146   7.197
   57DSPC   C4A  792   2.702   2.857   7.349
   57DSPC   C5A  793   2.694   2.702   0.286
   57DSPC   C1B  794   3.467   3.620   0.318
   57DSPC   C2B  795   3.359   3.165   0.376
   57DSPC   C3B  796   3.215   2.770   0.606
   57DSPC   C4B  797   2.839   2.530   0.754
   57DSPC   C5B  798   2.489   2.303   0.525
   58DSPC   NC3  799   5.673   3.443   7.270
   58DSPC   PO4  800   5.488   3.142   0.102
   58DSPC   GL1  801   5.028   3.105   0.037
   58DSPC   GL2  802   5.034   3.190   0.367
   58DSPC   C1A  803   4.572   3.095   0.183
   58DSPC   C2A  804   4.187   2.936   0.064
   58DSPC   C3A  805   4.086   2.595   7.334
   58DSPC   C4A  806   4.428   2.399   7.140
   58DSPC   C5A  807   4.756   2.304   6.858
   58DSPC   C1B  808   4.902   2.736   0.301
   58DSPC   C2B  809   4.507   2.528   0.136
   58DSPC   C3B  810   4.200   2.181   0.100
   58DSPC   C4B  811   4.230   1.750   7.467
   58DSPC   C5B  812   4.607   1.514   0.105
   59DSPC   NC3  813   0.755   2.683   3.869
   59DSPC   PO4  814   0.853   2.855   4.318
   59DSPC   GL1  815   0.777   3.329   4.183
   59DSPC   GL2  816   0.450   3.466   4.253
   59DSPC   C1A  817   0.852   3.799   4.191
   59DSPC   C2A  818   0.690   4.252   4.138
   59DSPC   C3A  819   0.400   4.515   3.952
   59DSPC   C4A  820   7.478   4.691   4.035
   59DSPC   C5A  821   7.085   4.462   4.004
   59DSPC   C1B  822   0.143   3.755   4.038
   59DSPC   C2B  823   7.256   3.988   3.863
   59DSPC   C3B  824   6.799   4.026   3.939
   59DSPC   C4B  825   6.414   3.892   4.184
   59DSPC   C5B  826   5.995   3.889   4.426
   60DSPC   NC3  827   3.055   6.465   0.157
   60DSPC   PO4  828   2.802   6.108   0.337
   60DSPC   GL1  829   3.176   6.305   0.602
   60DSPC   GL2  830   3.313   6.618   0.586
   60DSPC   C1A  831   3.671   6.246   0.707
   60DSPC   C2A  832   4.103   6.104   0.808
   60DSPC   C3A  833   4.565   6.124   0.873
   60DSPC   C4A  834   4.936   6.195   1.170
   60DSPC   C5A  835   5.015   6.322   1.651
   60DSPC   C1B  836   3.598   6.863   0.882
   60DSPC   C2B  837   3.954   7.011   1.181
   60DSPC   C3B  838   4.289   7.137   1.518
   60DSPC   C4B  839   4.424   7.398   1.856
   60DSPC   C5B  840   4.768   0.241   1.973
   61DSPC   NC3  841   0.719   3.223   4.641
   61DSPC   PO4  842   0.738   3.380   5.041
   61DSPC   GL1  843   0.670   2.985   5.128
   61DSPC   GL2  844   0.911   2.885   5.341
   61DSPC   C1A  845   0.373   2.691   5.294
   61DSPC   C2A  846   7.481   2.448   5.323
   61DSPC   C3A  847   7.428   2.017   5.219
   61DSPC   C4A  848   0.189   1.638   5.176
   61DSPC   C5A  849   0.276   1.387   4.797
   61DSPC   C1B  850   1.201   2.524   5.288
   61DSPC   C2B  851   1.325   2.057   5.236
   61DSPC   C3B  852   1.359   1.575   5.267
   61DSPC   C4B  853   1.151   1.136   5.274
   61DSPC   C5B  854   1.151   0.671   5.360
   62DSPC   NC3  855   4.033   5.037   5.088
   62DSPC   PO4  856   3.955   5.271   4.712
   62DSPC   GL1  857   3.579   5.129   5.030
   62DSPC   GL2  858   3.541   4.764   5.067
   62DSPC   C1A  859   3.120   5.043   5.155
   62DSPC   C2A  860   2.715   4.819   4.966
   62DSPC   C3A  861   2.358   4.531   4.818
   62DSPC   C4A  862   1.990   4.236   4.923
   62DSPC   C5A  863   1.968   3.803   5.130
   62DSPC   C1B  864   3.123   4.518   5.207
   62DSPC   C2B  865   2.962   4.066   5.227
   62DSPC   C3B  866   2.831   3.698   4.976
   62DSPC   C4B  867   2.847   3.489   4.571
   62DSPC   C5B  868   2.900   3.299   4.140
   63DSPC   NC3  869   2.186   5.729   3.023
   63DSPC   PO4  870   2.662   5.833   3.156
   63DSPC   GL1  871   2.779   6.256   3.083
   63DSPC   GL2  872   2.773   6.580   3.222
   63DSPC   C1A  873   3.060   6.472   2.798
   63DSPC   C2A  874   3.416   6.767   2.820
   63DSPC   C3A  875   3.414   7.168   2.579
   63DSPC   C4A  876   3.224   7.469   2.269
   63DSPC   C5A  877   3.172   0.325   1.956
   63DSPC   C1B  878   2.649   6.981   3.434
   63DSPC   C2B  879   2.663   7.445   3.459
   63DSPC   C3B  880   2.880   0.379   3.363
   63DSPC   C4B  881   2.763   0.790   3.187
   63DSPC   C5B  882   2.611   1.235   3.175
   64DSPC   NC3  883   6.147   1.246   6.931
   64DSPC   PO4  884   6.567   0.963   6.903
   64DSPC   GL1  885   6.767   0.532   6.753
   64DSPC   GL2  886   6.981   0.244   6.914
   64DSPC   C1A  887   6.859   0.206   6.426
   64DSPC   C2A  888   7.175   7.449   6.210
   64DSPC   C3A  889   7.431   7.141   6.352
   64DSPC   C4A  890   7.500   7.059   6.788
   64DSPC   C5A  891   7.323   6.964   7.162
   64DSPC   C1B  892   7.055   7.298   6.710
   64DSPC   C2B  893   7.035   6.808   6.752
   64DSPC   C3B  894   6.769   6.389   6.817
   64DSPC   C4B  895   6.438   5.993   6.807
   64DSPC   C5B  896   6.171   5.567   6.781
   65DSPC   NC3  897   1.240   2.215   2.816
   65DSPC   PO4  898   0.889   2.378   2.539
   65DSPC   GL1  899   0.737   2.297   2.091
   65DSPC   GL2  900   0.952   2.028   1.910
   65DSPC   C1A  901   0.444   2.574   1.782
   65DSPC   C2A  902   0.387   2.686   1.303
   65DSPC   C3A  903   0.697   2.605   0.929
   65DSPC   C4A  904   1.017   2.307   0.732
   65DSPC   C5A  905   1.466   2.109   0.778
   65DSPC   C1B  906   1.109   1.845   1.477
   65DSPC   C2B  907   1.169   1.437   1.240
   65DSPC   C3B  908   1.079   1.198   0.854
   65DSPC   C4B  909   1.352   1.115   0.515
   65DSPC   C5B  910   1.656   0.783   0.448
   66DSPC   NC3  911   4.597   3.135   6.343
   66DSPC   PO4  912   4.280   3.394   6.108
   66DSPC   GL1  913   4.085   3.497   6.532
   66DSPC   GL2  914   4.350   3.378   6.794
   66DSPC   C1A  915   3.667   3.637   6.754
   66DSPC   C2A  916   3.597   3.761   7.186
   66DSPC   C3A  917   3.907   3.798   0.041
   66DSPC   C4A  918   4.194   3.602   0.408
   66DSPC   C5A  919   4.257   3.524   0.891
   66DSPC   C1B  920   4.589   3.722   7.093
   66DSPC   C2B  921   4.821   4.060   7.295
   66DSPC   C3B  922   5.050   4.048   0.214
   66DSPC   C4B  923   5.086   3.684   0.516
   66DSPC   C5B  924   5.113   3.391   0.862
   67DSPC   NC3  925   0.018   0.734   6.141
   67DSPC   PO4  926   7.291   0.476   5.859
   67DSPC   GL1  927   0.068   0.270   6.153
   67DSPC   GL2  928   0.415   0.405   6.088
   67DSPC   C1A  929   0.306   7.409   6.091
   67DSPC   C2A  930   0.294   6.970   5.999
   67DSPC   C3A  931   0.590   6.625   6.118
   67DSPC   C4A  932   1.009   6.527   5.980
   67DSPC   C5A  933   1.299   6.754   5.736
   67DSPC   C1B  934   0.808   0.141   6.038
   67DSPC   C2B  935   1.120   7.328   5.800
   67DSPC   C3B  936   1.562   7.180   5.620
   67DSPC   C4B  937   2.018   7.062   5.639
   67DSPC   C5B  938   2.473   7.062   5.507
   68DSPC   NC3  939   3.033   2.418   3.107
   68DSPC   PO4  940   3.415   2.212   2.896
   68DSPC   GL1  941   3.634   1.952   3.251
   68DSPC   GL2  942   3.888   2.145   3.442
   68DSPC   C1A  943   3.966   1.662   3.451
   68DSPC   C2A  944   4.367   1.840   3.515
   68DSPC   C3A  945   4.801   1.940   3.663
   68DSPC   C4A  946   5.004   1.878   4.088
   68DSPC   C5A  947   5.142   1.912   4.538
   68DSPC   C1B  948   3.821   1.958   3.868
   68DSPC   C2B  949   3.972   1.876   4.294
   68DSPC   C3B  950   4.331   1.668   4.461
   68DSPC   C4B  951   4.715   1.664   4.693
   68DSPC   C5B  952   5.020   1.804   5.022
   69DSPC   NC3  953   3.660   5.985   4.009
   69DSPC   PO4  954   3.784   5.815   3.572
   69DSPC   GL1  955   4.029   6.137   3.245
   69DSPC   GL2  956   4.023   6.083   2.868
   69DSPC   C1A  957   4.432   6.328   3.010
   69DSPC   C2A  958   4.756   6.555   2.724
   69DSPC   C3A  959   5.130   6.465   2.516
   69DSPC   C4A  960   5.214   6.205   2.171
   69DSPC   C5A  961   4.958   5.900   1.967
   69DSPC   C1B  962   4.036   5.740   2.603
   69DSPC   C2B  963   4.225   5.425   2.331
   69DSPC   C3B  964   4.554   5.169   2.145
   69DSPC   C4B  965   4.535   5.078   1.693
   69DSPC   C5B  966   4.246   4.843   1.450
   70DSPC   NC3  967   3.794   4.363   0.120
   70DSPC   PO4  968   4.177   4.613   7.452
   70DSPC   GL1  969   4.063   4.646   0.396
   70DSPC   GL2  970   4.281   4.521   0.630
   70DSPC   C1A  971   3.948   4.837   0.807
   70DSPC   C2A  972   3.903   5.098   1.172
   70DSPC   C3A  973   4.008   5.280   1.567
   70DSPC   C4A  974   4.088   5.066   1.957
   70DSPC   C5A  975   4.368   4.690   2.011
   70DSPC   C1B  976   4.200   4.481   1.095
   70DSPC   C2B  977   4.424   4.369   1.476
   70DSPC   C3B  978   4.333   4.163   1.881
   70DSPC   C4B  979   4.298   3.825   2.198
   70DSPC   C5B  980   4.488   3.451   2.363
   71DSPC   NC3  981   4.528   1.917   2.143
   71DSPC   PO4  982   4.656   1.571   1.829
   71DSPC   GL1  983   4.241   1.729   1.809
   71DSPC   GL2  984   4.372   2.009   1.644
   71DSPC   C1A  985   3.824   1.724   2.042
   71DSPC   C2A  986   3.359   1.880   2.005
   71DSPC   C3A  987   3.079   1.923   1.602
   71DSPC   C4A  988   2.804   2.148   1.261
   71DSPC   C5A  989   2.423   2.298   1.034
   71DSPC   C1B  990   4.287   2.436   1.533
   71DSPC   C2B  991   4.176   2.893   1.540
   71DSPC   C3B  992   3.748   3.027   1.587
   71DSPC   C4B  993   3.320   3.221   1.541
   71DSPC   C5B  994   3.192   3.522   1.228
   72DSPC   NC3  995   5.648   6.064   1.910
   72DSPC   PO4  996   5.685   5.666   2.152
   72DSPC   GL1  997   5.380   5.671   1.848
   72DSPC   GL2  998   5.507   5.385   1.668
   72DSPC   C1A  999   5.030   5.583   1.558
   72DSPC   C2A 1000   4.863   5.229   1.305
   72DSPC   C3A 1001   4.751   4.778   1.341
   72DSPC   C4A 1002   4.939   4.368   1.363
   72DSPC   C5A 1003   5.168   3.991   1.251
   72DSPC   C1B 1004   5.951   5.183   1.657
   72DSPC   C2B 1005   6.367   4.969   1.511
   72DSPC   C3B 1006   6.539   4.682   1.160
   72DSPC   C4B 1007   6.696   4.393   0.807
   72DSPC   C5B 1008   6.966   4.336   0.412
   73DSPC   NC3 1009   0.425   3.945   4.463
   73DSPC   PO4 1010   0.365   3.590   4.741
   73DSPC   GL1 1011   0.326   3.186   4.891
   73DSPC   GL2 1012   0.254   3.211   5.206
   73DSPC   C1A 1013   0.423   2.777   4.800
   73DSPC   C2A 1014   0.790   2.548   4.942
   73DSPC   C3A 1015   1.213   2.417   4.789
   73DSPC   C4A 1016   1.623   2.398   5.007
   73DSPC   C5A 1017   1.715   2.400   5.458
   73DSPC   C1B 1018   0.482   3.113   5.589
   73DSPC   C2B 1019   0.878   3.193   5.804
   73DSPC   C3B 1020   1.107   3.011   6.171
   73DSPC   C4B 1021   1.246   2.832   6.560
   73DSPC   C5B 1022   1.601   2.710   6.830
   74DSPC   NC3 1023   3.215   6.289   3.252
   74DSPC   PO4 1024   3.228   6.679   3.457
   74DSPC   GL1 1025   3.010   6.995   3.134
   74DSPC   GL2 1026   2.961   6.966   2.759
   74DSPC   C1A 1027   2.627   7.268   2.993
   74DSPC   C2A 1028   2.567   0.086   2.654
   74DSPC   C3A 1029   2.741   0.136   2.237
   74DSPC   C4A 1030   2.676   0.345   1.840
   74DSPC   C5A 1031   2.687   0.240   1.376
   74DSPC   C1B 1032   3.167   6.765   2.371
   74DSPC   C2B 1033   3.227   6.641   1.919
   74DSPC   C3B 1034   3.077   6.694   1.478
   74DSPC   C4B 1035   3.167   6.984   1.138
   74DSPC   C5B 1036   3.140   7.073   0.715
   75DSPC   NC3 1037   2.425   0.149   5.249
   75DSPC   PO4 1038   2.852   0.246   5.235
   75DSPC   GL1 1039   2.798   7.309   5.257
   75DSPC   GL2 1040   2.583   7.139   5.036
   75DSPC   C1A 1041   3.010   6.908   5.316
   75DSPC   C2A 1042   3.416   6.666   5.328
   75DSPC   C3A 1043   3.558   6.313   5.055
   75DSPC   C4A 1044   3.205   6.144   4.834
   75DSPC   C5A 1045   2.934   6.407   4.549
   75DSPC   C1B 1046   2.270   6.921   4.781
   75DSPC   C2B 1047   2.464   6.646   4.465
   75DSPC   C3B 1048   2.582   6.695   4.013
   75DSPC   C4B 1049   2.420   6.531   3.603
   75DSPC   C5B 1050   2.118   6.230   3.368
   76DSPC   NC3 1051   4.751   7.074   1.287
   76DSPC   PO4 1052   4.540   6.727   1.104
   76DSPC   GL1 1053   4.383   7.179   0.978
   76DSPC   GL2 1054   4.204   7.440   1.144
   76DSPC   C1A 1055   4.222   0.020   0.654
   76DSPC   C2A 1056   4.037   7.360   0.234
   76DSPC   C3A 1057   3.766   7.031   0.082
   76DSPC   C4A 1058   3.345   6.979   0.224
   76DSPC   C5A 1059   3.082   7.386   0.334
   76DSPC   C1B 1060   3.782   7.454   0.962
   76DSPC   C2B 1061   3.313   0.038   0.937
   76DSPC   C3B 1062   3.032   0.437   1.026
   76DSPC   C4B 1063   2.616   0.684   1.102
   76DSPC   C5B 1064   2.178   0.862   1.004
   77DSPC   NC3 1065   1.125   7.425   3.892
   77DSPC   PO4 1066   1.466   7.205   4.131
   77DSPC   GL1 1067   1.603   0.154   4.110
   77DSPC   GL2 1068   1.401   0.364   3.851
   77DSPC   C1A 1069   2.140   0.351   3.971
   77DSPC   C2A 1070   2.578   0.196   3.890
   77DSPC   C3A 1071   3.033   0.105   3.757
   77DSPC   C4A 1072   3.152   7.431   3.338
   77DSPC   C5A 1073   3.447   7.189   3.099
   77DSPC   C1B 1074   1.541   0.877   3.732
   77DSPC   C2B 1075   1.867   1.088   3.460
   77DSPC   C3B 1076   2.218   0.885   3.207
   77DSPC   C4B 1077   2.434   0.681   2.825
   77DSPC   C5B 1078   2.641   0.591   2.411
   78DSPC   NC3 1079   1.107   0.960   6.646
   78DSPC   PO4 1080   1.534   0.859   6.476
   78DSPC   GL1 1081   1.237   0.582   6.338
   78DSPC   GL2 1082   1.113   0.764   6.062
   78DSPC   C1A 1083   0.997   0.251   6.526
   78DSPC   C2A 1084   0.904   7.344   6.438
   78DSPC   C3A 1085   0.761   7.110   6.117
   78DSPC   C4A 1086   0.783   6.902   5.713
   78DSPC   C5A 1087   0.945   6.573   5.416
   78DSPC   C1B 1088   1.200   0.385   5.791
   78DSPC   C2B 1089   1.337   0.100   5.420
   78DSPC   C3B 1090   1.580   7.323   5.102
   78DSPC   C4B 1091   1.771   6.900   4.975
   78DSPC   C5B 1092   1.710   6.417   5.015
   79DSPC   NC3 1093   4.704   2.119   3.147
   79DSPC   PO4 1094   4.686   2.453   2.817
   79DSPC   GL1 1095   4.455   2.288   2.445
   79DSPC   GL2 1096   4.140   2.156   2.424
   79DSPC   C1A 1097   4.485   2.419   2.010
   79DSPC   C2A 1098   4.793   2.285   1.763
   79DSPC   C3A 1099   5.126   2.033   1.873
   79DSPC   C4A 1100   5.433   1.768   2.074
   79DSPC   C5A 1101   5.533   1.354   2.231
   79DSPC   C1B 1102   4.034   2.187   1.978
   79DSPC   C2B 1103   3.702   2.070   1.678
   79DSPC   C3B 1104   3.522   1.626   1.582
   79DSPC   C4B 1105   3.412   1.153   1.478
   79DSPC   C5B 1106   3.416   0.732   1.236
   80DSPC   NC3 1107   6.792   5.916   2.936
   80DSPC   PO4 1108   6.694   5.750   3.336
   80DSPC   GL1 1109   6.515   5.421   3.587
   80DSPC   GL2 1110   6.692   5.193   3.820
   80DSPC   C1A 1111   6.183   5.145   3.762
   80DSPC   C2A 1112   6.141   4.798   4.048
   80DSPC   C3A 1113   6.321   4.715   4.458
   80DSPC   C4A 1114   6.399   4.571   4.887
   80DSPC   C5A 1115   6.363   4.684   5.364
   80DSPC   C1B 1116   6.467   5.148   4.211
   80DSPC   C2B 1117   6.015   5.189   4.365
   80DSPC   C3B 1118   5.867   5.359   4.794
   80DSPC   C4B 1119   5.757   5.373   5.271
   80DSPC   C5B 1120   5.359   5.266   5.527
   81DSPC   NC3 1121   6.599   1.424   7.121
   81DSPC   PO4 1122   6.167   1.602   7.307
   81DSPC   GL1 1123   5.982   1.786   0.248
   81DSPC   GL2 1124   5.618   1.855   0.313
   81DSPC   C1A 1125   5.876   1.765   0.743
   81DSPC   C2A 1126   5.754   2.050   1.103
   81DSPC   C3A 1127   5.865   2.481   1.055
   81DSPC   C4A 1128   5.691   2.767   0.729
   81DSPC   C5A 1129   5.249   2.884   0.710
   81DSPC   C1B 1130   5.381   1.948   0.704
   81DSPC   C2B 1131   4.979   2.117   0.875
   81DSPC   C3B 1132   4.781   2.511   0.758
   81DSPC   C4B 1133   4.428   2.754   0.576
   81DSPC   C5B 1134   4.197   3.123   0.540
   82DSPC   NC3 1135   1.621   0.645   6.025
   82DSPC   PO4 1136   1.527   1.084   5.838
   82DSPC   GL1 1137   1.718   1.417   5.531
   82DSPC   GL2 1138   1.864   1.370   5.177
   82DSPC   C1A 1139   1.798   1.870   5.364
   82DSPC   C2A 1140   2.094   2.180   5.140
   82DSPC   C3A 1141   2.554   2.324   5.015
   82DSPC   C4A 1142   2.945   2.455   4.775
   82DSPC   C5A 1143   3.394   2.355   4.768
   82DSPC   C1B 1144   2.332   1.366   5.033
   82DSPC   C2B 1145   2.690   1.571   4.794
   82DSPC   C3B 1146   3.049   1.576   4.501
   82DSPC   C4B 1147   3.464   1.450   4.324
   82DSPC   C5B 1148   3.600   1.014   4.182
   83DSPC   NC3 1149   2.155   4.548   7.393
   83DSPC   PO4 1150   2.592   4.664   7.207
   83DSPC   GL1 1151   2.933   4.833   0.014
   83DSPC   GL2 1152   3.003   4.729   0.382
   83DSPC   C1A 1153   3.306   5.112   0.201
   83DSPC   C2A 1154   3.555   5.503   0.298
   83DSPC   C3A 1155   3.893   5.711   0.537
   83DSPC   C4A 1156   3.938   5.677   1.012
   83DSPC   C5A 1157   3.620   5.519   1.299
   83DSPC   C1B 1158   3.229   4.945   0.698
   83DSPC   C2B 1159   3.495   4.676   0.908
   83DSPC   C3B 1160   3.825   4.353   0.736
   83DSPC   C4B 1161   4.167   4.037   0.885
   83DSPC   C5B 1162   4.215   3.913   1.336
   84DSPC   NC3 1163   3.249   1.149   4.798
   84DSPC   PO4 1164   3.549   0.818   4.941
   84DSPC   GL1 1165   3.715   1.180   4.637
   84DSPC   GL2 1166   3.879   1.536   4.712
   84DSPC   C1A 1167   3.994   1.327   4.261
   84DSPC   C2A 1168   4.202   1.600   3.949
   84DSPC   C3A 1169   4.479   1.900   4.043
   84DSPC   C4A 1170   4.656   2.089   4.413
   84DSPC   C5A 1171   4.600   2.526   4.558
   84DSPC   C1B 1172   4.252   1.800   4.938
   84DSPC   C2B 1173   4.633   2.130   4.939
   84DSPC   C3B 1174   5.009   2.280   5.237
   84DSPC   C4B 1175   5.221   2.689   5.409
   84DSPC   C5B 1176   5.422   2.963   5.770
   85DSPC   NC3 1177   4.002   5.673   3.143
   85DSPC   PO4 1178   3.591   5.987   3.129
   85DSPC   GL1 1179   3.564   6.230   3.564
   85DSPC   GL2 1180   3.265   6.247   3.774
   85DSPC   C1A 1181   3.677   6.521   3.927
   85DSPC   C2A 1182   3.787   6.939   4.105
   85DSPC   C3A 1183   3.677   7.368   4.250
   85DSPC   C4A 1184   3.268   0.065   4.249
   85DSPC   C5A 1185   2.854   7.359   4.149
   85DSPC   C1B 1186   3.207   6.580   4.133
   85DSPC   C2B 1187   2.922   6.881   4.358
   85DSPC   C3B 1188   2.601   7.155   4.516
   85DSPC   C4B 1189   2.379   7.493   4.755
   85DSPC   C5B 1190   1.985   0.151   4.933
   86DSPC   NC3 1191   6.559   1.236   3.532
   86DSPC   PO4 1192   6.297   0.924   3.272
   86DSPC   GL1 1193   6.103   1.126   2.926
   86DSPC   GL2 1194   6.375   1.216   2.710
   86DSPC   C1A 1195   5.910   1.435   2.625
   86DSPC   C2A 1196   5.868   1.814   2.384
   86DSPC   C3A 1197   6.112   2.215   2.401
   86DSPC   C4A 1198   6.494   2.483   2.307
   86DSPC   C5A 1199   6.616   2.903   2.487
   86DSPC   C1B 1200   6.708   1.299   2.389
   86DSPC   C2B 1201   6.816   1.719   2.196
   86DSPC   C3B 1202   6.894   2.189   2.184
   86DSPC   C4B 1203   6.959   2.646   2.173
   86DSPC   C5B 1204   7.118   2.985   2.454
   87DSPC   NC3 1205   3.165   2.775   0.070
   87DSPC   PO4 1206   3.294   2.572   7.186
   87DSPC   GL1 1207   2.870   2.406   7.384
   87DSPC   GL2 1208   2.470   2.393   7.468
   87DSPC   C1A 1209   2.731   1.949   7.404
   87DSPC   C2A 1210   2.730   1.561   0.170
   87DSPC   C3A 1211   2.688   1.075   0.235
   87DSPC   C4A 1212   2.475   0.659   0.175
   87DSPC   C5A 1213   2.043   0.477   0.281
   87DSPC   C1B 1214   2.308   1.981   0.170
   87DSPC   C2B 1215   1.940   1.720   0.171
   87DSPC   C3B 1216   1.455   1.561   0.213
   87DSPC   C4B 1217   1.107   1.252   0.099
   87DSPC   C5B 1218   0.837   1.016   0.393
   88DSPC   NC3 1219   0.447   6.551   1.250
   88DSPC   PO4 1220   0.758   6.407   0.888
   88DSPC   GL1 1221   0.761   6.580   0.467
   88DSPC   GL2 1222   0.732   6.940   0.398
   88DSPC   C1A 1223   0.601   6.418   0.087
   88DSPC   C2A 1224   0.203   6.293   0.104
   88DSPC   C3A 1225   7.406   6.435   0.387
   88DSPC   C4A 1226   6.989   6.563   0.397
   88DSPC   C5A 1227   6.599   6.762   0.236
   88DSPC   C1B 1228   0.327   6.761   0.353
   88DSPC   C2B 1229   7.455   6.889   0.183
   88DSPC   C3B 1230   7.044   6.956   0.080
   88DSPC   C4B 1231   6.738   7.259   0.198
   88DSPC   C5B 1232   6.596   7.411   0.619
   89DSPC   NC3 1233   2.245   5.306   5.522
   89DSPC   PO4 1234   2.383   5.776   5.473
   89DSPC   GL1 1235   2.195   6.049   5.141
   89DSPC   GL2 1236   2.134   6.327   5.330
   89DSPC   C1A 1237   2.165   6.424   4.823
   89DSPC   C2A 1238   1.895   6.652   4.538
   89DSPC   C3A 1239   1.447   6.657   4.640
   89DSPC   C4A 1240   1.303   6.742   5.090
   89DSPC   C5A 1241   1.140   7.080   5.352
   89DSPC   C1B 1242   2.182   6.755   5.241
   89DSPC   C2B 1243   2.102   7.228   5.177
   89DSPC   C3B 1244   1.885   0.066   5.436
   89DSPC   C4B 1245   1.651   0.130   5.843
   89DSPC   C5B 1246   1.330   0.079   6.179
   90DSPC   NC3 1247   7.345   7.064   2.591
   90DSPC   PO4 1248   7.054   7.235   2.239
   90DSPC   GL1 1249   7.424   7.284   1.976
   90DSPC   GL2 1250   7.405   6.963   1.886
   90DSPC   C1A 1251   0.346   7.404   1.800
   90DSPC   C2A 1252   0.751   7.226   1.661
   90DSPC   C3A 1253   0.805   6.779   1.552
   90DSPC   C4A 1254   0.593   6.402   1.745
   90DSPC   C5A 1255   0.352   6.070   2.025
   90DSPC   C1B 1256   7.458   6.695   2.261
   90DSPC   C2B 1257   0.059   6.268   2.429
   90DSPC   C3B 1258   7.472   5.840   2.307
   90DSPC   C4B 1259   0.093   5.405   2.251
   90DSPC   C5B 1260   0.108   4.939   2.295
   91DSPC   NC3 1261   5.074   5.150   7.302
   91DSPC   PO4 1262   4.900   5.348   0.163
   91DSPC   GL1 1263   4.911   5.728   0.378
   91DSPC   GL2 1264   4.941   5.770   0.734
   91DSPC   C1A 1265   4.783   6.158   0.378
   91DSPC   C2A 1266   4.402   6.422   0.456
   91DSPC   C3A 1267   4.051   6.584   0.702
   91DSPC   C4A 1268   3.882   6.500   1.124
   91DSPC   C5A 1269   4.051   6.619   1.526
   91DSPC   C1B 1270   4.736   5.712   1.147
   91DSPC   C2B 1271   4.661   5.971   1.530
   91DSPC   C3B 1272   4.474   6.352   1.733
   91DSPC   C4B 1273   4.131   6.364   2.040
   91DSPC   C5B 1274   3.886   6.200   2.399
   92DSPC   NC3 1275   1.648   3.540   0.101
   92DSPC   PO4 1276   1.324   3.317   7.383
   92DSPC   GL1 1277   1.239   2.836   0.022
   92DSPC   GL2 1278   1.558   2.618   7.409
   92DSPC   C1A 1279   0.886   2.460   0.073
   92DSPC   C2A 1280   0.791   2.118   7.228
   92DSPC   C3A 1281   0.799   1.686   6.989
   92DSPC   C4A 1282   0.683   1.346   6.647
   92DSPC   C5A 1283   0.550   1.412   6.183
   92DSPC   C1B 1284   1.608   2.265   7.074
   92DSPC   C2B 1285   1.271   1.924   6.931
   92DSPC   C3B 1286   1.157   1.549   6.628
   92DSPC   C4B 1287   1.028   1.270   6.241
   92DSPC   C5B 1288   0.860   1.146   5.806
   93DSPC   NC3 1289   3.254   0.620   4.206
   93DSPC   PO4 1290   2.965   0.828   4.517
   93DSPC   GL1 1291   3.117   0.424   4.651
   93DSPC   GL2 1292   3.435   0.402   4.643
   93DSPC   C1A 1293   2.949   7.497   4.649
   93DSPC   C2A 1294   3.037   7.090   4.824
   93DSPC   C3A 1295   3.224   6.682   4.851
   93DSPC   C4A 1296   3.487   6.464   4.552
   93DSPC   C5A 1297   3.895   6.397   4.379
   93DSPC   C1B 1298   3.451   7.438   4.728
   93DSPC   C2B 1299   3.537   7.063   5.000
   93DSPC   C3B 1300   3.865   6.730   5.082
   93DSPC   C4B 1301   4.293   6.612   5.151
   93DSPC   C5B 1302   4.630   6.467   4.906
   94DSPC   NC3 1303   4.408   6.821   5.646
   94DSPC   PO4 1304   4.767   6.635   5.909
   94DSPC   GL1 1305   4.557   6.276   6.151
   94DSPC   GL2 1306   4.661   5.937   6.099
   94DSPC   C1A 1307   4.593   6.178   6.588
   94DSPC   C2A 1308   4.502   6.328   7.020
   94DSPC   C3A 1309   4.418   6.169   7.448
   94DSPC   C4A 1310   4.179   5.783   7.440
   94DSPC   C5A 1311   3.907   5.397   7.424
   94DSPC   C1B 1312   4.849   5.621   6.409
   94DSPC   C2B 1313   5.118   5.207   6.498
   94DSPC   C3B 1314   5.342   4.944   6.866
   94DSPC   C4B 1315   5.104   4.624   7.139
   94DSPC   C5B 1316   4.877   4.504   0.032
   95DSPC   NC3 1317   3.120   3.360   6.158
   95DSPC   PO4 1318   3.057   3.762   6.411
   95DSPC   GL1 1319   3.370   3.790   6.157
   95DSPC   GL2 1320   3.414   4.139   6.140
   95DSPC   C1A 1321   3.801   3.822   6.251
   95DSPC   C2A 1322   3.949   4.024   6.583
   95DSPC   C3A 1323   4.249   4.364   6.610
   95DSPC   C4A 1324   4.612   4.479   6.370
   95DSPC   C5A 1325   5.065   4.439   6.214
   95DSPC   C1B 1326   3.703   4.079   5.787
   95DSPC   C2B 1327   4.024   4.384   5.649
   95DSPC   C3B 1328   4.021   4.840   5.594
   95DSPC   C4B 1329   4.161   5.268   5.704
   95DSPC   C5B 1330   4.579   5.510   5.652
   96DSPC   NC3 1331   0.887   2.647   3.033
   96DSPC   PO4 1332   0.914   2.879   3.443
   96DSPC   GL1 1333   0.492   2.819   3.473
   96DSPC   GL2 1334   0.528   2.469   3.416
   96DSPC   C1A 1335   0.082   2.712   3.282
   96DSPC   C2A 1336   7.392   2.362   3.027
   96DSPC   C3A 1337   7.204   1.960   3.152
   96DSPC   C4A 1338   6.826   1.686   3.220
   96DSPC   C5A 1339   6.408   1.537   3.123
   96DSPC   C1B 1340   0.116   2.247   3.490
   96DSPC   C2B 1341   7.471   1.930   3.759
   96DSPC   C3B 1342   7.481   1.510   3.947
   96DSPC   C4B 1343   7.400   1.119   4.158
   96DSPC   C5B 1344   7.134   0.774   4.335
   97DSPC   NC3 1345   7.454   3.924   5.601
   97DSPC   PO4 1346   7.324   3.722   6.005
   97DSPC   GL1 1347   6.890   3.818   6.158
   97DSPC   GL2 1348   6.833   3.796   6.522
   97DSPC   C1A 1349   6.453   3.648   6.207
   97DSPC   C2A 1350   6.043   3.616   6.439
   97DSPC   C3A 1351   5.797   3.307   6.686
   97DSPC   C4A 1352   5.780   2.997   7.026
   97DSPC   C5A 1353   5.904   2.631   7.311
   97DSPC   C1B 1354   6.491   3.519   6.712
   97DSPC   C2B 1355   6.239   3.239   6.976
   97DSPC   C3B 1356   6.142   3.075   7.392
   97DSPC   C4B 1357   6.055   2.830   0.284
   97DSPC   C5B 1358   6.178   2.620   0.671
   98DSPC   NC3 1359   3.763   2.506   3.121
   98DSPC   PO4 1360   3.409   2.340   3.417
   98DSPC   GL1 1361   3.353   2.741   3.245
   98DSPC   GL2 1362   3.360   2.740   2.894
   98DSPC   C1A 1363   3.351   3.190   3.127
   98DSPC   C2A 1364   3.219   3.539   2.853
   98DSPC   C3A 1365   2.940   3.902   2.800
   98DSPC   C4A 1366   2.726   4.000   2.425
   98DSPC   C5A 1367   2.680   3.794   2.026
   98DSPC   C1B 1368   3.062   3.056   2.719
   98DSPC   C2B 1369   2.927   3.035   2.273
   98DSPC   C3B 1370   2.892   3.083   1.821
   98DSPC   C4B 1371   2.841   3.176   1.382
   98DSPC   C5B 1372   2.749   3.357   0.998
   99DSPC   NC3 1373   7.040   7.277   1.708
   99DSPC   PO4 1374   6.902   6.865   1.864
   99DSPC   GL1 1375   6.755   6.429   1.930
   99DSPC   GL2 1376   6.680   6.283   2.265
   99DSPC   C1A 1377   6.843   5.969   1.900
   99DSPC   C2A 1378   7.115   5.577   1.999
   99DSPC   C3A 1379   7.111   5.367   2.385
   99DSPC   C4A 1380   7.339   5.552   2.704
   99DSPC   C5A 1381   7.482   5.491   3.123
   99DSPC   C1B 1382   6.469   5.931   2.508
   99DSPC   C2B 1383   6.635   5.502   2.657
   99DSPC   C3B 1384   6.550   5.079   2.811
   99DSPC   C4B 1385   6.351   4.749   3.058
   99DSPC   C5B 1386   5.938   4.753   3.287
  100DSPC   NC3 1387   6.954   4.913   4.316
  100DSPC   PO4 1388   7.131   5.253   4.083
  100DSPC   GL1 1389   0.080   5.159   4.015
  100DSPC   GL2 1390   0.350   4.989   4.217
  100DSPC   C1A 1391   0.483   5.347   3.896
  100DSPC   C2A 1392   0.839   5.351   4.165
  100DSPC   C3A 1393   1.134   5.704   4.254
  100DSPC   C4A 1394   1.298   6.080   4.501
  100DSPC   C5A 1395   1.228   6.246   4.929
  100DSPC   C1B 1396   0.603   5.156   4.590
  100DSPC   C2B 1397   1.043   5.271   4.675
  100DSPC   C3B 1398   1.227   5.658   4.780
  100DSPC   C4B 1399   1.598   5.875   4.911
  100DSPC   C5B 1400   1.758   5.985   5.309
  101DSPC   NC3 1401   1.755   6.958   3.805
  101DSPC   PO4 1402   1.537   7.359   3.619
  101DSPC   GL1 1403   1.806   0.164   3.748
  101DSPC   GL2 1404   1.963   7.392   3.969
  101DSPC   C1A 1405   1.749   0.590   4.092
  101DSPC   C2A 1406   1.634   0.989   4.216
  101DSPC   C3A 1407   1.309   0.978   4.487
  101DSPC   C4A 1408   1.314   0.803   4.880
  101DSPC   C5A 1409   1.625   0.914   5.173
  101DSPC   C1B 1410   2.311   7.492   4.259
  101DSPC   C2B 1411   2.353   0.399   4.438
  101DSPC   C3B 1412   2.210   0.603   4.825
  101DSPC   C4B 1413   2.068   0.548   5.267
  101DSPC   C5B 1414   2.077   0.452   5.735
  102DSPC   NC3 1415   0.532   1.951   3.562
  102DSPC   PO4 1416   0.629   1.713   3.922
  102DSPC   GL1 1417   0.801   1.290   3.772
  102DSPC   GL2 1418   0.832   1.074   4.057
  102DSPC   C1A 1419   1.023   0.886   3.579
  102DSPC   C2A 1420   1.370   0.563   3.396
  102DSPC   C3A 1421   1.869   0.562   3.526
  102DSPC   C4A 1422   2.091   0.849   3.844
  102DSPC   C5A 1423   2.122   0.854   4.332
  102DSPC   C1B 1424   1.173   0.771   4.056
  102DSPC   C2B 1425   1.340   0.468   4.360
  102DSPC   C3B 1426   1.452   0.246   4.737
  102DSPC   C4B 1427   1.590   0.408   5.105
  102DSPC   C5B 1428   1.620   0.523   5.517
  103DSPC   NC3 1429   4.825   6.578   0.722
  103DSPC   PO4 1430   4.833   7.045   0.800
  103DSPC   GL1 1431   4.440   6.882   0.661
  103DSPC   GL2 1432   4.463   7.143   0.435
  103DSPC   C1A 1433   3.999   7.076   0.668
  103DSPC   C2A 1434   3.604   7.287   0.522
  103DSPC   C3A 1435   3.522   7.469   0.095
  103DSPC   C4A 1436   3.666   7.341   7.162
  103DSPC   C5A 1437   3.793   7.170   6.725
  103DSPC   C1B 1438   4.197   6.836   0.255
  103DSPC   C2B 1439   4.074   6.551   7.429
  103DSPC   C3B 1440   4.002   6.194   7.145
  103DSPC   C4B 1441   4.093   6.082   6.703
  103DSPC   C5B 1442   4.321   5.772   6.452
  104DSPC   NC3 1443   1.977   0.838   2.671
  104DSPC   PO4 1444   1.984   0.492   2.354
  104DSPC   GL1 1445   2.137   0.278   2.744
  104DSPC   GL2 1446   2.004   0.448   3.038
  104DSPC   C1A 1447   2.119   7.442   3.098
  104DSPC   C2A 1448   2.194   0.108   3.515
  104DSPC   C3A 1449   2.405   0.524   3.551
  104DSPC   C4A 1450   2.542   0.939   3.609
  104DSPC   C5A 1451   2.310   1.293   3.599
  104DSPC   C1B 1452   1.698   0.795   3.090
  104DSPC   C2B 1453   1.386   1.090   3.272
  104DSPC   C3B 1454   0.998   1.355   3.336
  104DSPC   C4B 1455   0.742   1.699   3.163
  104DSPC   C5B 1456   0.820   2.144   3.144
  105DSPC   NC3 1457   4.590   3.186   1.273
  105DSPC   PO4 1458   4.774   3.522   1.449
  105DSPC   GL1 1459   4.810   3.741   1.036
  105DSPC   GL2 1460   4.637   4.046   1.098
  105DSPC   C1A 1461   5.016   4.105   0.772
  105DSPC   C2A 1462   5.054   4.494   0.554
  105DSPC   C3A 1463   4.705   4.756   0.474
  105DSPC   C4A 1464   4.375   5.013   0.445
  105DSPC   C5A 1465   4.262   5.424   0.294
  105DSPC   C1B 1466   4.679   4.476   0.925
  105DSPC   C2B 1467   4.442   4.898   0.951
  105DSPC   C3B 1468   4.375   5.287   1.198
  105DSPC   C4B 1469   4.277   5.676   1.374
  105DSPC   C5B 1470   4.211   6.130   1.308
  106DSPC   NC3 1471   4.788   3.933   5.125
  106DSPC   PO4 1472   4.730   3.468   5.225
  106DSPC   GL1 1473   4.977   3.577   5.595
  106DSPC   GL2 1474   5.233   3.488   5.415
  106DSPC   C1A 1475   5.303   3.453   5.912
  106DSPC   C2A 1476   5.653   3.274   6.175
  106DSPC   C3A 1477   6.112   3.262   6.075
  106DSPC   C4A 1478   6.317   3.473   5.712
  106DSPC   C5A 1479   6.560   3.809   5.505
  106DSPC   C1B 1480   5.529   3.789   5.557
  106DSPC   C2B 1481   5.984   3.838   5.467
  106DSPC   C3B 1482   6.247   4.204   5.451
  106DSPC   C4B 1483   6.635   4.267   5.234
  106DSPC   C5B 1484   6.872   4.323   4.834
  107DSPC   NC3 1485   7.145   6.481   1.632
  107DSPC   PO4 1486   7.205   6.860   1.400
  107DSPC   GL1 1487   0.110   6.722   1.543
  107DSPC   GL2 1488   0.109   6.495   1.839
  107DSPC   C1A 1489   0.398   6.896   1.845
  107DSPC   C2A 1490   0.281   7.104   2.231
  107DSPC   C3A 1491   0.349   7.261   2.661
  107DSPC   C4A 1492   0.560   7.042   3.036
  107DSPC   C5A 1493   0.935   7.082   3.341
  107DSPC   C1B 1494   0.434   6.533   2.212
  107DSPC   C2B 1495   0.556   6.231   2.575
  107DSPC   C3B 1496   0.783   6.125   2.987
  107DSPC   C4B 1497   0.942   5.975   3.405
  107DSPC   C5B 1498   0.976   5.612   3.730
  108DSPC   NC3 1499   6.400   3.790   7.255
  108DSPC   PO4 1500   6.039   3.737   7.443
  108DSPC   GL1 1501   6.410   3.722   0.255
  108DSPC   GL2 1502   6.504   3.990   0.510
  108DSPC   C1A 1503   6.664   3.510   0.635
  108DSPC   C2A 1504   6.988   3.294   0.943
  108DSPC   C3A 1505   7.422   3.448   1.049
  108DSPC   C4A 1506   0.338   3.518   0.872
  108DSPC   C5A 1507   0.761   3.676   0.868
  108DSPC   C1B 1508   6.938   3.941   0.726
  108DSPC   C2B 1509   7.216   4.291   0.855
  108DSPC   C3B 1510   0.145   4.387   0.931
  108DSPC   C4B 1511   0.570   4.417   0.955
  108DSPC   C5B 1512   0.877   4.127   1.055
  109DSPC   NC3 1513   0.010   4.385   3.609
  109DSPC   PO4 1514   7.324   4.679   3.313
  109DSPC   GL1 1515   0.067   5.000   3.126
  109DSPC   GL2 1516   0.360   4.801   3.119
  109DSPC   C1A 1517   0.236   5.236   2.757
  109DSPC   C2A 1518   0.418   5.639   2.632
  109DSPC   C3A 1519   0.868   5.791   2.604
  109DSPC   C4A 1520   1.257   5.951   2.848
  109DSPC   C5A 1521   1.731   6.011   2.910
  109DSPC   C1B 1522   0.827   4.735   3.031
  109DSPC   C2B 1523   1.208   4.939   2.833
  109DSPC   C3B 1524   1.586   5.166   2.600
  109DSPC   C4B 1525   2.007   5.404   2.532
  109DSPC   C5B 1526   2.427   5.217   2.594
  110DSPC   NC3 1527   0.573   3.846   5.110
  110DSPC   PO4 1528   0.735   4.142   4.785
  110DSPC   GL1 1529   0.845   3.736   4.701
  110DSPC   GL2 1530   1.084   3.743   4.991
  110DSPC   C1A 1531   1.275   3.733   4.521
  110DSPC   C2A 1532   1.723   3.703   4.687
  110DSPC   C3A 1533   2.046   3.367   4.808
  110DSPC   C4A 1534   2.496   3.199   4.810
  110DSPC   C5A 1535   2.864   2.978   4.568
  110DSPC   C1B 1536   1.378   3.370   4.898
  110DSPC   C2B 1537   1.413   2.903   4.796
  110DSPC   C3B 1538   1.631   2.579   4.532
  110DSPC   C4B 1539   2.002   2.493   4.298
  110DSPC   C5B 1540   2.390   2.388   4.119
  111DSPC   NC3 1541   3.658   2.333   7.458
  111DSPC   PO4 1542   3.245   2.288   0.151
  111DSPC   GL1 1543   3.540   2.600   0.336
  111DSPC   GL2 1544   3.669   2.831   0.111
  111DSPC   C1A 1545   3.727   2.934   0.633
  111DSPC   C2A 1546   3.778   3.401   0.656
  111DSPC   C3A 1547   3.811   3.881   0.559
  111DSPC   C4A 1548   4.146   4.103   0.382
  111DSPC   C5A 1549   4.412   3.937   0.059
  111DSPC   C1B 1550   3.787   2.996   7.228
  111DSPC   C2B 1551   3.908   3.380   7.126
  111DSPC   C3B 1552   4.097   3.756   7.011
  111DSPC   C4B 1553   4.400   3.854   6.653
  111DSPC   C5B 1554   4.381   4.009   6.261
  112DSPC   NC3 1555   0.529   3.105   1.672
  112DSPC   PO4 1556   0.817   3.188   1.303
  112DSPC   GL1 1557   0.333   3.232   1.257
  112DSPC   GL2 1558   0.085   3.370   1.505
  112DSPC   C1A 1559   7.463   2.955   1.163
  112DSPC   C2A 1560   7.042   2.778   1.183
  112DSPC   C3A 1561   6.882   2.384   1.402
  112DSPC   C4A 1562   6.619   2.411   1.796
  112DSPC   C5A 1563   6.175   2.504   1.922
  112DSPC   C1B 1564   7.135   3.254   1.461
  112DSPC   C2B 1565   6.702   3.219   1.673
  112DSPC   C3B 1566   6.517   2.888   1.973
  112DSPC   C4B 1567   6.143   2.836   2.299
  112DSPC   C5B 1568   5.765   3.077   2.385
  113DSPC   NC3 1569   4.507   3.490   5.666
  113DSPC   PO4 1570   4.694   3.934   5.660
  113DSPC   GL1 1571   5.102   4.001   5.456
  113DSPC   GL2 1572   5.076   4.320   5.257
  113DSPC   C1A 1573   5.309   3.838   5.072
  113DSPC   C2A 1574   5.529   3.902   4.657
  113DSPC   C3A 1575   5.600   4.224   4.343
  113DSPC   C4A 1576   5.738   4.661   4.354
  113DSPC   C5A 1577   5.543   5.027   4.529
  113DSPC   C1B 1578   4.785   4.721   5.386
  113DSPC   C2B 1579   4.477   5.075   5.361
  113DSPC   C3B 1580   4.251   5.504   5.259
  113DSPC   C4B 1581   4.022   5.863   5.077
  113DSPC   C5B 1582   4.038   6.276   4.863
  114DSPC   NC3 1583   2.425   2.137   3.661
  114DSPC   PO4 1584   2.096   2.187   3.357
  114DSPC   GL1 1585   2.505   2.416   3.284
  114DSPC   GL2 1586   2.573   2.467   2.911
  114DSPC   C1A 1587   2.723   2.803   3.280
  114DSPC   C2A 1588   3.027   3.014   3.507
  114DSPC   C3A 1589   3.456   2.991   3.623
  114DSPC   C4A 1590   3.784   2.988   3.312
  114DSPC   C5A 1591   3.816   2.961   2.849
  114DSPC   C1B 1592   2.924   2.585   2.621
  114DSPC   C2B 1593   3.320   2.751   2.390
  114DSPC   C3B 1594   3.395   2.984   2.003
  114DSPC   C4B 1595   3.625   3.382   1.910
  114DSPC   C5B 1596   3.601   3.626   1.509
  115DSPC   NC3 1597   0.238   3.842   1.762
  115DSPC   PO4 1598   0.547   3.584   1.520
  115DSPC   GL1 1599   0.224   3.738   1.284
  115DSPC   GL2 1600   0.403   3.953   1.149
  115DSPC   C1A 1601   7.406   4.046   1.258
  115DSPC   C2A 1602   7.347   4.495   1.334
  115DSPC   C3A 1603   7.358   4.930   1.432
  115DSPC   C4A 1604   7.370   5.323   1.633
  115DSPC   C5A 1605   0.143   5.651   1.783
  115DSPC   C1B 1606   0.322   4.295   1.416
  115DSPC   C2B 1607   0.317   4.733   1.326
  115DSPC   C3B 1608   0.305   5.208   1.341
  115DSPC   C4B 1609   0.558   5.600   1.230
  115DSPC   C5B 1610   1.002   5.805   1.268
  116DSPC   NC3 1611   4.772   5.785   7.431
  116DSPC   PO4 1612   5.201   5.618   7.332
  116DSPC   GL1 1613   5.278   5.407   6.932
  116DSPC   GL2 1614   4.950   5.496   6.888
  116DSPC   C1A 1615   5.710   5.261   6.727
  116DSPC   C2A 1616   5.930   4.913   6.544
  116DSPC   C3A 1617   5.965   4.517   6.737
  116DSPC   C4A 1618   5.601   4.441   7.015
  116DSPC   C5A 1619   5.315   4.144   7.213
  116DSPC   C1B 1620   4.843   5.045   6.878
  116DSPC   C2B 1621   4.983   4.693   6.637
  116DSPC   C3B 1622   5.181   4.286   6.733
  116DSPC   C4B 1623   5.043   3.855   6.858
  116DSPC   C5B 1624   4.800   3.538   6.640
  117DSPC   NC3 1625   1.377   5.082   6.492
  117DSPC   PO4 1626   1.694   4.879   6.338
  117DSPC   GL1 1627   1.348   4.927   6.034
  117DSPC   GL2 1628   1.073   5.167   6.079
  117DSPC   C1A 1629   1.136   4.691   5.700
  117DSPC   C2A 1630   0.823   4.656   5.387
  117DSPC   C3A 1631   0.374   4.751   5.357
  117DSPC   C4A 1632   0.072   4.735   4.981
  117DSPC   C5A 1633   7.496   4.938   4.563
  117DSPC   C1B 1634   1.062   5.564   5.809
  117DSPC   C2B 1635   0.798   5.663   5.460
  117DSPC   C3B 1636   0.733   5.584   5.001
  117DSPC   C4B 1637   0.729   5.673   4.567
  117DSPC   C5B 1638   0.534   5.762   4.178
  118DSPC   NC3 1639   2.669   5.648   2.692
  118DSPC   PO4 1640   3.031   5.627   2.522
  118DSPC   GL1 1641   2.912   5.170   2.536
  118DSPC   GL2 1642   2.714   4.941   2.273
  118DSPC   C1A 1643   3.136   4.744   2.520
  118DSPC   C2A 1644   3.241   4.262   2.483
  118DSPC   C3A 1645   3.219   3.810   2.392
  118DSPC   C4A 1646   2.865   3.506   2.443
  118DSPC   C5A 1647   2.538   3.317   2.135
  118DSPC   C1B 1648   2.504   4.644   1.939
  118DSPC   C2B 1649   2.632   4.257   1.747
  118DSPC   C3B 1650   2.383   3.897   1.619
  118DSPC   C4B 1651   2.486   3.444   1.631
  118DSPC   C5B 1652   2.429   2.970   1.617
  119DSPC   NC3 1653   6.974   4.669   5.375
  119DSPC   PO4 1654   6.803   4.631   5.816
  119DSPC   GL1 1655   6.654   4.207   5.774
  119DSPC   GL2 1656   6.966   4.024   5.723
  119DSPC   C1A 1657   6.260   3.989   5.901
  119DSPC   C2A 1658   5.888   3.712   5.952
  119DSPC   C3A 1659   5.783   3.359   5.677
  119DSPC   C4A 1660   6.042   3.143   5.370
  119DSPC   C5A 1661   6.353   3.047   5.043
  119DSPC   C1B 1662   7.052   3.672   5.374
  119DSPC   C2B 1663   7.208   3.221   5.209
  119DSPC   C3B 1664   7.445   2.844   4.995
  119DSPC   C4B 1665   0.092   2.384   4.837
  119DSPC   C5B 1666   0.225   1.925   4.737
  120DSPC   NC3 1667   1.859   5.786   6.683
  120DSPC   PO4 1668   1.757   5.403   6.448
  120DSPC   GL1 1669   1.609   5.259   6.065
  120DSPC   GL2 1670   1.552   5.512   5.898
  120DSPC   C1A 1671   1.333   5.162   5.641
  120DSPC   C2A 1672   0.895   5.129   5.583
  120DSPC   C3A 1673   0.628   4.861   5.810
  120DSPC   C4A 1674   0.300   4.599   5.985
  120DSPC   C5A 1675   7.407   4.370   5.904
  120DSPC   C1B 1676   1.445   5.910   5.737
  120DSPC   C2B 1677   1.012   6.099   5.686
  120DSPC   C3B 1678   0.597   6.330   5.696
  120DSPC   C4B 1679   0.177   6.503   5.823
  120DSPC   C5B 1680   7.353   6.704   6.092
  121DSPC   NC3 1681   1.302   3.517   3.982
  121DSPC   PO4 1682   1.657   3.233   4.237
  121DSPC   GL1 1683   1.845   2.988   4.588
  121DSPC   GL2 1684   2.170   2.944   4.475
  121DSPC   C1A 1685   2.053   2.601   4.816
  121DSPC   C2A 1686   2.235   2.213   4.646
  121DSPC   C3A 1687   2.642   2.057   4.570
  121DSPC   C4A 1688   3.079   2.075   4.434
  121DSPC   C5A 1689   3.481   1.987   4.269
  121DSPC   C1B 1690   2.501   2.631   4.552
  121DSPC   C2B 1691   2.861   2.501   4.278
  121DSPC   C3B 1692   3.336   2.500   4.275
  121DSPC   C4B 1693   3.761   2.411   4.399
  121DSPC   C5B 1694   3.915   2.556   4.805
  122DSPC   NC3 1695   6.517   1.391   4.381
  122DSPC   PO4 1696   6.639   1.118   4.026
  122DSPC   GL1 1697   7.008   1.348   4.236
  122DSPC   GL2 1698   7.098   1.208   4.592
  122DSPC   C1A 1699   7.402   1.565   4.457
  122DSPC   C2A 1700   7.287   1.680   4.878
  122DSPC   C3A 1701   7.172   1.551   5.335
  122DSPC   C4A 1702   7.191   1.302   5.780
  122DSPC   C5A 1703   7.243   1.146   6.224
  122DSPC   C1B 1704   7.345   1.203   5.014
  122DSPC   C2B 1705   0.073   1.220   5.437
  122DSPC   C3B 1706   0.201   1.157   5.880
  122DSPC   C4B 1707   0.523   0.906   6.108
  122DSPC   C5B 1708   0.750   0.669   6.409
  123DSPC   NC3 1709   5.717   2.232   2.041
  123DSPC   PO4 1710   6.018   1.913   1.771
  123DSPC   GL1 1711   6.337   1.540   1.841
  123DSPC   GL2 1712   6.633   1.405   1.630
  123DSPC   C1A 1713   6.316   1.058   1.813
  123DSPC   C2A 1714   6.048   0.710   1.982
  123DSPC   C3A 1715   5.710   0.373   1.936
  123DSPC   C4A 1716   5.364   0.068   1.783
  123DSPC   C5A 1717   5.316   7.096   1.797
  123DSPC   C1B 1718   6.746   0.932   1.520
  123DSPC   C2B 1719   6.837   0.462   1.472
  123DSPC   C3B 1720   7.107   0.099   1.307
  123DSPC   C4B 1721   7.135   7.311   0.930
  123DSPC   C5B 1722   6.989   7.037   0.590
  124DSPC   NC3 1723   1.909   3.035   0.569
  124DSPC   PO4 1724   1.628   3.043   0.206
  124DSPC   GL1 1725   2.006   3.250   0.164
  124DSPC   GL2 1726   2.350   3.202   0.314
  124DSPC   C1A 1727   2.172   3.608   0.058
  124DSPC   C2A 1728   2.414   3.869   7.343
  124DSPC   C3A 1729   2.759   4.043   7.496
  124DSPC   C4A 1730   3.052   4.341   0.063
  124DSPC   C5A 1731   3.359   4.649   7.494
  124DSPC   C1B 1732   2.630   3.619   0.294
  124DSPC   C2B 1733   3.054   3.620   0.028
  124DSPC   C3B 1734   3.442   3.332   7.412
  124DSPC   C4B 1735   3.855   3.308   0.138
  124DSPC   C5B 1736   4.286   3.440   7.442
  125DSPC   NC3 1737   1.188   3.210   0.358
  125DSPC   PO4 1738   1.546   3.429   0.586
  125DSPC   GL1 1739   1.959   3.561   0.476
  125DSPC   GL2 1740   2.180   3.455   0.736
  125DSPC   C1A 1741   2.238   3.930   0.573
  125DSPC   C2A 1742   2.384   4.139   0.980
  125DSPC   C3A 1743   2.293   4.362   1.366
  125DSPC   C4A 1744   2.123   4.315   1.775
  125DSPC   C5A 1745   2.317   4.153   2.142
  125DSPC   C1B 1746   2.347   3.645   1.128
  125DSPC   C2B 1747   2.749   3.758   1.314
  125DSPC   C3B 1748   2.991   3.619   1.672
  125DSPC   C4B 1749   3.145   3.463   2.028
  125DSPC   C5B 1750   3.366   3.311   2.399
  126DSPC   NC3 1751   2.166   2.285   1.884
  126DSPC   PO4 1752   2.596   2.249   1.888
  126DSPC   GL1 1753   2.408   2.488   1.511
  126DSPC   GL2 1754   2.052   2.408   1.368
  126DSPC   C1A 1755   2.586   2.773   1.161
  126DSPC   C2A 1756   2.404   2.809   0.755
  126DSPC   C3A 1757   2.078   2.550   0.714
  126DSPC   C4A 1758   1.704   2.476   0.523
  126DSPC   C5A 1759   1.312   2.467   0.333
  126DSPC   C1B 1760   1.686   2.510   1.045
  126DSPC   C2B 1761   1.334   2.736   0.778
  126DSPC   C3B 1762   0.943   2.776   0.503
  126DSPC   C4B 1763   0.513   2.808   0.374
  126DSPC   C5B 1764   0.108   2.580   0.295
  127DSPC   NC3 1765   4.771   6.474   5.420
  127DSPC   PO4 1766   4.464   6.284   5.696
  127DSPC   GL1 1767   4.307   6.619   6.054
  127DSPC   GL2 1768   4.187   6.485   6.370
  127DSPC   C1A 1769   4.358   7.050   6.252
  127DSPC   C2A 1770   4.424   0.030   6.239
  127DSPC   C3A 1771   4.134   0.389   6.168
  127DSPC   C4A 1772   3.701   0.330   6.269
  127DSPC   C5A 1773   3.464   7.453   6.410
  127DSPC   C1B 1774   3.873   6.837   6.327
  127DSPC   C2B 1775   3.575   7.077   6.039
  127DSPC   C3B 1776   3.121   7.126   5.975
  127DSPC   C4B 1777   2.756   7.371   5.795
  127DSPC   C5B 1778   2.299   7.483   5.740
  128DSPC   NC3 1779   1.710   3.063   7.209
  128DSPC   PO4 1780   1.930   3.325   6.920
  128DSPC   GL1 1781   2.127   2.929   6.868
  128DSPC   GL2 1782   2.010   2.653   7.116
  128DSPC   C1A 1783   2.588   3.065   6.883
  128DSPC   C2A 1784   3.009   3.171   6.706
  128DSPC   C3A 1785   3.465   3.168   6.835
  128DSPC   C4A 1786   3.916   3.078   6.732
  128DSPC   C5A 1787   4.280   2.954   7.039
  128DSPC   C1B 1788   2.435   2.588   7.001
  128DSPC   C2B 1789   2.710   2.235   6.984
  128DSPC   C3B 1790   3.097   1.979   7.008
  128DSPC   C4B 1791   3.572   1.993   6.988
  128DSPC   C5B 1792   4.002   2.108   7.135
  129W        W 1793   2.476   1.834   0.798
  130W        W 1794   1.379   3.010   3.309
  131W        W 1795   7.247   0.761   2.856
  132W        W 1796   1.939   1.586   1.933
  133W        W 1797   7.090   1.585   1.797
  134W        W 1798   1.246   1.849   3.225
  135W        W 1799   0.906   2.723   2.153
  136W        W 1800   1.678   1.746   2.324
  137W        W 1801   1.686   2.080   3.073
  138W        W 1802   2.703   0.891   1.772
  139W        W 1803   3.255   0.367   0.545
  140W        W 1804   0.461   0.093   2.259
  141W        W 1805   2.053   2.496   2.355
  142W        W 1806   1.872   1.097   1.726
  143W        W 1807   1.863   0.692   1.350
  144W        W 1808   7.332   0.497   1.597
  145W        W 1809   0.455   2.991   2.162
  146W        W 1810   3.562   0.030   1.869
  147W        W 1811   2.160   2.209   2.815
  148W        W 1812   1.260   2.086   2.322
  149W        W 1813   2.054   1.841   1.116
  150W        W 1814   2.476   0.278   3.109
  151W        W 1815   2.929   1.028   1.290
  152W        W 1816   1.059   3.368   3.511
  153W        W 1817   2.149   1.686   3.249
  154W        W 1818   2.165   0.190   1.956
  155W        W 1819   0.450   2.087   2.584
  156W        W 1820   3.164   0.511   2.423
  157W        W 1821   1.872   3.137   3.396
  158W        W 1822   1.866   1.200   1.233
  159W        W 1823   1.699   2.188   2.580
  160W        W 1824   1.929   1.038   2.219
  161W        W 1825   1.863   1.965   1.606
  162W        W 1826   3.518   1.713   2.865
  163W        W 1827   2.397   1.041   2.450
  164W        W 1828   1.268   3.459   3.067
  165W        W 1829   7.131   1.021   2.428
  166W        W 1830   1.139   3.315   0.893
  167W        W 1831   1.702   2.215   2.070
  168W        W 1832   1.357   2.580   2.455
  169W        W 1833   7.322   1.913   2.201
  170W        W 1834   2.886   0.444   2.849
  171W        W 1835   1.531   1.317   2.059
  172W        W 1836   0.340   0.376   1.598
  173W        W 1837   2.422   1.760   1.931
  174W        W 1838   2.664   1.458   2.278
  175W        W 1839   2.123   1.990   2.298
  176W        W 1840   2.304   0.732   2.041
  177W        W 1841   3.148   0.917   0.825
  178W        W 1842   0.418   2.524   2.337
  179W        W 1843   2.656   0.149   0.864
  180W        W 1844   1.882   0.181   1.501
  181W        W 1845   2.221   0.330   1.121
  182W        W 1846   7.458   0.014   2.371
  183W        W 1847   0.168   0.844   1.804
  184W        W 1848   2.158   1.291   2.871
  185W        W 1849   7.340   0.233   0.740
  186W        W 1850   0.912   1.864   2.674
  187W        W 1851   2.150   1.483   2.378
  188W        W 1852   1.419   1.749   2.748
  189W        W 1853   3.924   2.074   2.892
  190W        W 1854   0.093   0.840   2.326
  191W        W 1855   2.851   1.949   2.222
  192W        W 1856   1.702   1.881   3.548
  193W        W 1857   2.440   2.704   2.052
  194W        W 1858   1.703   1.315   2.606
  195W        W 1859   1.100   0.003   1.401
  196W        W 1860   2.325   1.240   1.945
  197W        W 1861   3.243   2.256   2.396
  198W        W 1862   0.900   3.232   2.291
  199W        W 1863   2.473   1.814   2.626
  200W        W 1864   1.603   1.504   1.546
  201W        W 1865   1.675   1.521   3.133
  202W        W 1866   1.024   3.665   1.299
  203W        W 1867   2.540   1.994   3.113
  204W        W 1868   0.197   0.413   2.592
  205W        W 1869   1.105   1.444   1.790
  206W        W 1870   0.154   2.891   2.620
  207W        W 1871   0.443   3.331   2.542
  208W        W 1872   2.841   1.404   0.870
  209W        W 1873   2.863   0.948   2.686
  210W        W 1874   3.723   2.498   2.604
  211W        W 1875   1.775   3.600   3.079
  212W        W 1876   7.477   2.759   2.156
  213W        W 1877   2.300   1.011   1.474
  214W        W 1878   2.532   2.302   2.411
  215W        W 1879   0.696   2.862   2.605
  216W        W 1880   1.430   1.826   1.894
  217W        W 1881   1.843   0.594   1.860
  218W        W 1882   1.533   3.091   3.776
  219W        W 1883   0.962   3.396   1.763
  220W        W 1884   2.180   1.516   1.501
  221W        W 1885   0.357   2.205   1.040
  222W        W 1886   0.096   0.400   2.054
  223W        W 1887   2.925   2.552   2.124
  224W        W 1888   0.532   3.496   2.029
  225W        W 1889   0.155   0.764   1.286
  226W        W 1890   2.616   1.688   3.522
  227W        W 1891   1.174   1.588   2.304
  228W        W 1892   2.293   0.520   1.581
  229W        W 1893   1.547   3.622   1.206
  230W        W 1894   2.362   2.021   1.491
  231W        W 1895   1.951   1.756   2.762
  232W        W 1896   2.913   2.074   2.751
  233W        W 1897   2.054   3.046   3.946
  234W        W 1898   1.659   3.123   2.900
  235W        W 1899   1.734   2.604   3.390
  236W        W 1900   1.265   2.639   3.728
  237W        W 1901   1.046   3.072   3.927
  238W        W 1902   1.459   3.239   6.738
  239W        W 1903   3.161   0.843   0.307
  240W        W 1904   0.837   3.461   7.396
  241W        W 1905   1.745   2.647   3.903
  242W        W 1906   3.272   1.055   5.319
  243W        W 1907   0.822   2.214   5.955
  244W        W 1908   2.165   2.711   6.446
  245W        W 1909   1.731   2.416   6.440
  246W        W 1910   2.938   2.670   6.804
  247W        W 1911   0.994   2.694   5.804
  248W        W 1912   3.583   2.590   5.204
  249W        W 1913   3.082   0.598   5.504
  250W        W 1914   3.435   1.443   5.946
  251W        W 1915   1.890   3.238   6.028
  252W        W 1916   3.817   2.950   4.340
  253W        W 1917   1.896   2.684   6.005
  254W        W 1918   0.127   0.804   5.149
  255W        W 1919   2.815   1.169   5.128
  256W        W 1920   7.488   2.915   5.511
  257W        W 1921   0.861   2.582   6.314
  258W        W 1922   1.096   1.917   3.992
  259W        W 1923   3.558   2.921   4.786
  260W        W 1924   2.579   2.562   6.022
  261W        W 1925   0.214   1.945   4.211
  262W        W 1926   0.478   0.461   5.302
  263W        W 1927   3.392   2.425   6.685
  264W        W 1928   2.580   0.691   5.234
  265W        W 1929   3.046   0.717   5.009
  266W        W 1930   1.140   7.495   4.399
  267W        W 1931   3.403   0.416   5.858
  268W        W 1932   0.547   0.992   5.420
  269W        W 1933   0.341   2.461   5.899
  270W        W 1934   2.397   3.096   5.365
  271W        W 1935   3.291   0.953   5.822
  272W        W 1936   2.206   3.209   6.500
  273W        W 1937   1.950   0.963   5.563
  274W        W 1938   2.793   2.817   5.551
  275W        W 1939   3.190   1.539   5.122
  276W        W 1940   3.299   2.009   6.034
  277W        W 1941   1.469   2.954   5.332
  278W        W 1942   2.678   3.414   6.428
  279W        W 1943   1.820   3.541   6.448
  280W        W 1944   3.124   1.939   5.507
  281W        W 1945   3.348   0.329   5.135
  282W        W 1946   2.776   3.758   5.980
  283W        W 1947   2.330   3.006   6.023
  284W        W 1948   1.272   2.266   5.709
  285W        W 1949   3.513   3.020   5.999
  286W        W 1950   1.482   2.959   5.851
  287W        W 1951   2.610   0.404   5.663
  288W        W 1952   1.968   2.187   3.876
  289W        W 1953   2.544   0.200   6.139
  290W        W 1954   1.235   2.341   6.618
  291W        W 1955   1.044   2.398   4.176
  292W        W 1956   2.717   1.667   5.298
  293W        W 1957   0.256   3.403   5.991
  294W        W 1958   1.357   2.556   6.139
  295W        W 1959   0.612   2.413   4.466
  296W        W 1960   1.363   7.420   6.660
  297W        W 1961   2.026   0.081   6.175
  298W        W 1962   0.683   1.408   5.139
  299W        W 1963   2.931   0.616   6.003
  300W        W 1964   0.735   0.618   5.738
  301W        W 1965   7.042   1.114   3.706
  302W        W 1966   0.811   2.058   6.449
  303W        W 1967   1.268   2.045   6.187
  304W        W 1968   3.060   0.123   6.129
  305W        W 1969   3.187   2.239   3.875
  306W        W 1970   3.481   0.496   0.090
  307W        W 1971   3.061   1.419   5.605
  308W        W 1972   3.366   0.720   6.281
  309W        W 1973   1.360   2.809   4.205
  310W        W 1974   3.192   3.248   5.651
  311W        W 1975   0.825   0.145   5.524
  312W        W 1976   2.784   0.981   5.624
  313W        W 1977   1.516   2.235   4.104
  314W        W 1978   0.787   2.913   6.737
  315W        W 1979   0.736   2.391   5.477
  316W        W 1980   1.422   3.402   6.146
  317W        W 1981   3.010   2.375   5.795
  318W        W 1982   1.737   7.187   6.390
  319W        W 1983   3.201   2.926   5.148
  320W        W 1984   2.672   2.897   6.409
  321W        W 1985   1.132   3.350   5.372
  322W        W 1986   0.639   3.410   6.884
  323W        W 1987   2.555   2.399   6.532
  324W        W 1988   0.507   1.489   5.637
  325W        W 1989   7.489   2.948   6.023
  326W        W 1990   1.455   1.771   5.758
  327W        W 1991   0.719   1.906   4.388
  328W        W 1992   2.707   2.810   5.045
  329W        W 1993   2.833   0.354   4.297
  330W        W 1994   3.450   2.520   6.055
  331W        W 1995   2.300   3.540   6.126
  332W        W 1996   0.603   3.051   6.240
  333W        W 1997   1.237   2.004   4.483
  334W        W 1998   2.139   1.718   3.779
  335W        W 1999   1.651   0.342   6.446
  336W        W 2000   1.002   3.337   6.522
  337W        W 2001   0.594   2.220   3.986
  338W        W 2002   0.212   0.693   5.671
  339W        W 2003   1.939   2.977   5.584
  340W        W 2004   3.292   2.750   5.612
  341W        W 2005   1.176   3.247   4.415
  342W        W 2006   0.391   1.465   4.299
  343W        W 2007   2.684   0.426   4.796
  344W        W 2008   2.692   3.279   5.799
  345W        W 2009   2.199   2.608   3.648
  346W        W 2010   1.320   0.516   6.810
  347W        W 2011   3.289   2.873   6.434
  348W        W 2012   1.716   2.197   5.962
  349W        W 2013   0.408   1.896   6.011
  350W        W 2014   3.013   2.453   6.314
  351W        W 2015   2.860   3.278   5.258
  352W        W 2016   1.703   2.956   6.395
  353W        W 2017   3.000   2.882   6.010
  354W        W 2018   3.074   2.425   5.274
  355W        W 2019   7.201   6.547   3.591
  356W        W 2020   0.324   5.917   3.084
  357W        W 2021   2.921   6.020   0.856
  358W        W 2022   2.020   5.681   0.729
  359W        W 2023   1.582   5.836   0.505
  360W        W 2024   3.241   4.539   1.350
  361W        W 2025   3.519   5.779   2.648
  362W        W 2026   2.325   6.265   2.134
  363W        W 2027   7.200   4.926   1.928
  364W        W 2028   3.533   5.489   3.100
  365W        W 2029   1.789   5.779   3.368
  366W        W 2030   1.717   5.487   2.963
  367W        W 2031   3.730   4.950   2.458
  368W        W 2032   1.735   6.938   1.932
  369W        W 2033   3.374   5.273   2.654
  370W        W 2034   2.801   5.344   1.381
  371W        W 2035   1.797   4.455   1.413
  372W        W 2036   1.548   6.342   0.587
  373W        W 2037   7.494   4.897   0.945
  374W        W 2038   2.315   4.843   0.643
  375W        W 2039   7.390   5.384   1.113
  376W        W 2040   1.652   4.378   3.262
  377W        W 2041   2.139   4.403   0.436
  378W        W 2042   2.818   4.411   2.748
  379W        W 2043   3.184   5.797   3.389
  380W        W 2044   1.512   4.266   0.631
  381W        W 2045   3.049   4.455   0.857
  382W        W 2046   3.753   6.663   1.910
  383W        W 2047   3.768   3.631   2.325
  384W        W 2048   2.298   5.776   3.524
  385W        W 2049   3.853   4.807   2.954
  386W        W 2050   2.402   5.483   1.032
  387W        W 2051   1.570   5.700   2.515
  388W        W 2052   1.444   4.692   2.448
  389W        W 2053   3.022   5.449   3.010
  390W        W 2054   3.475   7.063   2.085
  391W        W 2055   1.447   6.291   1.437
  392W        W 2056   3.232   4.012   1.461
  393W        W 2057   2.809   4.258   1.272
  394W        W 2058   3.381   5.000   3.088
  395W        W 2059   2.035   6.138   1.706
  396W        W 2060   1.782   4.731   0.625
  397W        W 2061   1.774   3.847   0.793
  398W        W 2062   2.170   6.632   1.781
  399W        W 2063   1.426   6.195   2.379
  400W        W 2064   3.530   6.211   2.058
  401W        W 2065   1.675   6.422   1.929
  402W        W 2066   1.828   5.383   0.339
  403W        W 2067   1.420   6.140   3.389
  404W        W 2068   0.809   5.881   0.820
  405W        W 2069   1.869   6.003   2.185
  406W        W 2070   1.977   3.962   1.267
  407W        W 2071   0.090   6.787   3.269
  408W        W 2072   1.677   4.757   2.905
  409W        W 2073   1.224   6.191   0.971
  410W        W 2074   2.334   5.332   0.471
  411W        W 2075   1.039   6.207   0.485
  412W        W 2076   0.228   6.489   0.791
  413W        W 2077   1.008   5.199   3.258
  414W        W 2078   1.559   4.055   3.655
  415W        W 2079   1.248   3.819   0.838
  416W        W 2080   0.148   3.690   2.305
  417W        W 2081   7.497   4.471   1.819
  418W        W 2082   1.328   4.780   3.280
  419W        W 2083   1.286   5.659   3.267
  420W        W 2084   0.048   5.930   0.405
  421W        W 2085   1.205   5.437   2.811
  422W        W 2086   3.937   5.294   2.791
  423W        W 2087   2.039   5.337   3.386
  424W        W 2088   0.520   6.235   3.465
  425W        W 2089   4.010   4.326   3.747
  426W        W 2090   0.869   4.081   3.143
  427W        W 2091   1.526   5.235   3.360
  428W        W 2092   1.763   6.698   1.476
  429W        W 2093   1.528   3.544   3.519
  430W        W 2094   3.044   6.176   1.899
  431W        W 2095   0.025   6.280   3.309
  432W        W 2096   0.947   4.588   2.541
  433W        W 2097   0.658   5.912   1.617
  434W        W 2098   2.699   5.432   2.181
  435W        W 2099   0.024   5.281   0.600
  436W        W 2100   1.383   3.954   3.163
  437W        W 2101   3.417   5.036   1.268
  438W        W 2102   2.678   6.147   2.665
  439W        W 2103   1.485   7.148   1.511
  440W        W 2104   0.580   6.742   3.469
  441W        W 2105   0.621   4.736   2.153
  442W        W 2106   1.656   4.869   7.348
  443W        W 2107   7.411   6.499   2.861
  444W        W 2108   0.463   5.275   3.256
  445W        W 2109   1.971   5.183   0.816
  446W        W 2110   0.906   6.306   1.365
  447W        W 2111   2.946   4.910   1.111
  448W        W 2112   1.603   3.982   1.622
  449W        W 2113   3.524   6.288   2.738
  450W        W 2114   0.416   6.085   1.079
  451W        W 2115   1.531   6.506   3.728
  452W        W 2116   2.516   5.798   0.632
  453W        W 2117   2.807   6.157   3.538
  454W        W 2118   2.729   5.927   2.216
  455W        W 2119   0.415   6.465   3.026
  456W        W 2120   1.026   6.441   3.604
  457W        W 2121   0.287   6.769   2.638
  458W        W 2122   0.785   5.632   3.079
  459W        W 2123   0.498   6.154   0.522
  460W        W 2124   3.103   5.951   2.902
  461W        W 2125   0.864   6.783   2.051
  462W        W 2126   2.097   4.775   1.116
  463W        W 2127   1.244   4.412   2.935
  464W        W 2128   2.267   6.014   1.032
  465W        W 2129   0.921   6.589   3.119
  466W        W 2130   0.264   5.691   0.805
  467W        W 2131   1.853   4.842   3.385
  468W        W 2132   1.311   4.686   0.365
  469W        W 2133   2.508   5.343   3.100
  470W        W 2134   2.015   7.159   1.550
  471W        W 2135   2.688   6.542   1.778
  472W        W 2136   1.819   3.988   0.290
  473W        W 2137   1.153   4.352   3.472
  474W        W 2138   1.057   5.079   2.386
  475W        W 2139   0.208   6.120   1.536
  476W        W 2140   0.562   5.231   2.327
  477W        W 2141   1.290   6.709   1.733
  478W        W 2142   3.160   6.127   2.421
  479W        W 2143   2.686   5.849   1.297
  480W        W 2144   2.793   6.450   2.268
  481W        W 2145   1.725   6.035   0.996
  482W        W 2146   1.040   6.404   6.489
  483W        W 2147   1.635   5.815   4.206
  484W        W 2148   1.948   6.690   6.409
  485W        W 2149   1.355   3.717   6.548
  486W        W 2150   2.303   3.925   5.798
  487W        W 2151   1.701   5.096   3.815
  488W        W 2152   1.799   6.065   3.782
  489W        W 2153   1.015   4.769   6.663
  490W        W 2154   3.597   5.013   6.220
  491W        W 2155   2.074   6.202   6.311
  492W        W 2156   3.203   6.527   6.722
  493W        W 2157   2.955   5.790   5.228
  494W        W 2158   1.232   6.929   3.742
  495W        W 2159   0.977   7.015   4.183
  496W        W 2160   1.918   6.149   5.758
  497W        W 2161   3.477   5.147   4.591
  498W        W 2162   1.175   6.537   4.104
  499W        W 2163   7.472   6.433   5.151
  500W        W 2164   1.234   6.053   6.171
  501W        W 2165   1.566   4.036   6.230
  502W        W 2166   3.884   3.610   5.469
  503W        W 2167   2.852   6.930   6.742
  504W        W 2168   2.862   4.486   6.752
  505W        W 2169   1.287   5.563   6.302
  506W        W 2170   2.034   5.589   5.136
  507W        W 2171   0.570   4.981   6.813
  508W        W 2172   2.222   3.704   6.735
  509W        W 2173   2.937   4.248   6.266
  510W        W 2174   2.646   5.641   0.149
  511W        W 2175   1.279   4.072   6.911
  512W        W 2176   3.873   4.749   4.691
  513W        W 2177   2.161   3.449   5.642
  514W        W 2178   0.382   5.896   6.456
  515W        W 2179   3.466   4.686   4.363
  516W        W 2180   2.067   5.914   4.714
  517W        W 2181   2.705   7.215   6.306
  518W        W 2182   2.447   4.295   6.100
  519W        W 2183   1.720   6.874   5.990
  520W        W 2184   2.699   4.706   6.303
  521W        W 2185   3.354   4.575   6.966
  522W        W 2186   1.838   3.736   5.933
  523W        W 2187   1.720   5.865   6.191
  524W        W 2188   2.574   3.922   6.431
  525W        W 2189   0.275   5.993   5.945
  526W        W 2190   1.490   5.587   3.755
  527W        W 2191   1.695   4.910   4.298
  528W        W 2192   1.577   6.217   6.554
  529W        W 2193   2.538   4.987   5.909
  530W        W 2194   2.009   5.643   5.808
  531W        W 2195   3.854   4.369   4.304
  532W        W 2196   0.724   6.141   6.157
  533W        W 2197   0.194   6.528   3.734
  534W        W 2198   1.193   4.997   3.710
  535W        W 2199   0.344   6.224   4.121
  536W        W 2200   0.929   5.298   6.566
  537W        W 2201   2.090   3.967   6.313
  538W        W 2202   0.305   3.940   5.977
  539W        W 2203   0.907   5.832   6.531
  540W        W 2204   0.511   5.720   3.535
  541W        W 2205   3.265   4.634   6.434
  542W        W 2206   3.715   5.553   4.344
  543W        W 2207   0.531   6.374   6.613
  544W        W 2208   3.290   4.154   6.657
  545W        W 2209   2.502   5.502   5.912
  546W        W 2210   2.032   4.923   0.212
  547W        W 2211   1.286   6.065   3.896
  548W        W 2212   2.505   5.723   4.977
  549W        W 2213   2.535   6.523   5.567
  550W        W 2214   2.184   5.638   6.304
  551W        W 2215   3.702   4.699   3.898
  552W        W 2216   1.766   4.000   6.726
  553W        W 2217   2.168   6.578   5.945
  554W        W 2218   0.773   6.065   3.864
  555W        W 2219   3.843   5.029   4.266
  556W        W 2220   0.861   3.844   6.605
  557W        W 2221   1.166   4.191   3.964
  558W        W 2222   0.427   5.377   6.501
  559W        W 2223   2.545   6.145   4.689
  560W        W 2224   1.620   5.405   4.512
  561W        W 2225   3.375   4.192   4.234
  562W        W 2226   2.361   4.393   6.579
  563W        W 2227   7.270   6.923   4.938
  564W        W 2228   0.833   6.217   4.342
  565W        W 2229   0.726   3.881   7.100
  566W        W 2230   2.191   7.085   6.127
  567W        W 2231   3.293   6.231   7.263
  568W        W 2232   7.239   6.302   5.632
  569W        W 2233   1.392   5.526   6.794
  570W        W 2234   2.359   5.993   5.943
  571W        W 2235   1.611   3.400   5.609
  572W        W 2236   0.099   5.994   3.719
  573W        W 2237   3.824   3.940   4.041
  574W        W 2238   3.022   6.703   7.198
  575W        W 2239   0.681   6.582   3.956
  576W        W 2240   2.510   5.229   6.362
  577W        W 2241   0.829   4.322   6.847
  578W        W 2242   2.607   3.675   5.466
  579W        W 2243   2.628   6.879   5.928
  580W        W 2244   1.535   4.592   3.724
  581W        W 2245   3.633   3.883   4.552
  582W        W 2246   1.319   5.233   4.138
  583W        W 2247   2.654   6.386   6.062
  584W        W 2248   2.970   6.736   6.282
  585W        W 2249   7.356   6.006   4.791
  586W        W 2250   0.673   5.620   6.113
  587W        W 2251   2.463   6.735   6.401
  588W        W 2252   1.614   6.390   6.079
  589W        W 2253   2.783   6.064   5.661
  590W        W 2254   1.640   6.338   4.210
  591W        W 2255   3.824   3.445   4.163
  592W        W 2256   6.579   2.327   0.534
  593W        W 2257   4.447   1.549   1.365
  594W        W 2258   5.076   3.375   3.070
  595W        W 2259   4.546   0.217   2.826
  596W        W 2260   6.175   1.002   3.784
  597W        W 2261   3.674   0.107   2.452
  598W        W 2262   4.834   1.210   3.001
  599W        W 2263   7.042   2.023   2.642
  600W        W 2264   5.162   1.562   1.670
  601W        W 2265   5.738   2.759   1.979
  602W        W 2266   5.757   2.550   2.498
  603W        W 2267   6.109   3.087   3.809
  604W        W 2268   4.125   0.601   1.442
  605W        W 2269   4.909   2.692   2.033
  606W        W 2270   7.357   0.527   0.297
  607W        W 2271   7.396   1.236   2.038
  608W        W 2272   5.294   3.039   2.050
  609W        W 2273   6.205   1.615   1.395
  610W        W 2274   6.144   0.719   1.028
  611W        W 2275   3.779   3.017   2.345
  612W        W 2276   4.582   2.716   2.415
  613W        W 2277   4.827   1.890   1.442
  614W        W 2278   6.684   3.549   3.092
  615W        W 2279   3.096   1.515   1.307
  616W        W 2280   4.000   0.108   1.580
  617W        W 2281   6.356   0.621   1.509
  618W        W 2282   6.557   1.864   4.185
  619W        W 2283   4.550   0.833   0.841
  620W        W 2284   4.508   0.725   3.001
  621W        W 2285   6.666   0.723   1.059
  622W        W 2286   4.764   3.708   3.432
  623W        W 2287   6.920   3.107   0.449
  624W        W 2288   5.578   3.110   1.627
  625W        W 2289   7.209   0.470   2.424
  626W        W 2290   7.014   0.668   0.653
  627W        W 2291   5.542   2.029   1.601
  628W        W 2292   3.646   0.647   2.574
  629W        W 2293   4.115   0.602   0.643
  630W        W 2294   6.421   3.619   1.861
  631W        W 2295   4.899   2.267   2.321
  632W        W 2296   4.352   0.398   1.037
  633W        W 2297   3.952   0.706   0.164
  634W        W 2298   5.560   1.088   2.648
  635W        W 2299   3.668   1.998   2.451
  636W        W 2300   4.273   0.304   0.243
  637W        W 2301   5.324   1.931   3.053
  638W        W 2302   6.178   2.199   3.078
  639W        W 2303   5.130   2.420   3.044
  640W        W 2304   4.382   2.235   0.600
  641W        W 2305   5.915   0.886   1.492
  642W        W 2306   7.182   0.607   1.128
  643W        W 2307   4.103   2.639   2.245
  644W        W 2308   4.652   0.675   1.359
  645W        W 2309   6.860   0.252   0.916
  646W        W 2310   3.786   0.263   0.436
  647W        W 2311   4.698   0.012   1.001
  648W        W 2312   6.523   0.477   0.604
  649W        W 2313   4.022   0.021   2.094
  650W        W 2314   4.283   0.420   1.893
  651W        W 2315   3.610   0.744   0.563
  652W        W 2316   5.538   3.656   0.233
  653W        W 2317   4.265   2.904   3.097
  654W        W 2318   7.164   1.524   2.507
  655W        W 2319   5.548   1.592   3.396
  656W        W 2320   4.082   2.640   3.515
  657W        W 2321   6.823   0.911   3.225
  658W        W 2322   5.104   3.563   3.803
  659W        W 2323   4.729   2.965   2.840
  660W        W 2324   5.992   3.874   0.428
  661W        W 2325   6.560   2.536   1.013
  662W        W 2326   7.241   1.015   1.563
  663W        W 2327   5.969   0.258   2.861
  664W        W 2328   5.946   3.352   0.266
  665W        W 2329   4.520   0.183   1.472
  666W        W 2330   7.147   2.128   1.755
  667W        W 2331   4.965   3.602   2.495
  668W        W 2332   4.787   1.181   1.506
  669W        W 2333   6.244   2.593   2.741
  670W        W 2334   4.006   2.555   0.370
  671W        W 2335   6.982   2.645   0.698
  672W        W 2336   0.053   0.698   0.769
  673W        W 2337   4.065   0.383   2.697
  674W        W 2338   4.460   0.787   0.307
  675W        W 2339   3.991   1.774   1.394
  676W        W 2340   4.146   3.613   2.685
  677W        W 2341   6.828   0.636   0.168
  678W        W 2342   7.454   2.356   2.509
  679W        W 2343   7.002   1.854   1.332
  680W        W 2344   5.392   3.768   2.770
  681W        W 2345   6.344   1.116   1.296
  682W        W 2346   3.633   2.467   2.106
  683W        W 2347   4.626   0.368   0.606
  684W        W 2348   4.254   3.069   2.582
  685W        W 2349   4.643   3.197   3.309
  686W        W 2350   6.747   4.011   0.061
  687W        W 2351   4.393   2.007   1.119
  688W        W 2352   4.860   3.125   2.313
  689W        W 2353   6.947   0.201   0.409
  690W        W 2354   4.602   3.462   2.858
  691W        W 2355   3.766   0.467   2.080
  692W        W 2356   5.149   3.194   1.340
  693W        W 2357   6.507   0.216   0.136
  694W        W 2358   4.318   1.055   1.258
  695W        W 2359   6.060   1.376   3.447
  696W        W 2360   4.780   3.547   1.987
  697W        W 2361   6.377   3.089   2.927
  698W        W 2362   5.688   1.142   3.165
  699W        W 2363   5.425   1.727   2.589
  700W        W 2364   3.250   2.347   1.791
  701W        W 2365   4.447   2.957   2.003
  702W        W 2366   4.677   2.649   3.284
  703W        W 2367   7.118   3.281   6.173
  704W        W 2368   3.987   0.911   5.220
  705W        W 2369   5.647   1.960   4.423
  706W        W 2370   6.633   7.499   5.450
  707W        W 2371   6.289   1.480   3.919
  708W        W 2372   3.710   1.157   5.598
  709W        W 2373   7.232   0.850   5.496
  710W        W 2374   5.944   2.878   5.808
  711W        W 2375   3.973   2.399   5.988
  712W        W 2376   3.546   1.639   5.486
  713W        W 2377   6.831   1.881   6.614
  714W        W 2378   4.528   2.992   5.339
  715W        W 2379   5.801   2.632   6.266
  716W        W 2380   4.192   1.020   5.748
  717W        W 2381   5.546   2.111   6.925
  718W        W 2382   3.664   1.482   6.808
  719W        W 2383   3.846   0.414   5.085
  720W        W 2384   4.271   2.653   5.634
  721W        W 2385   7.002   2.280   4.996
  722W        W 2386   6.900   0.445   5.551
  723W        W 2387   4.231   3.431   4.472
  724W        W 2388   4.022   2.866   5.234
  725W        W 2389   5.190   3.287   4.282
  726W        W 2390   4.101   3.177   5.634
  727W        W 2391   4.484   2.592   6.103
  728W        W 2392   5.980   1.977   4.823
  729W        W 2393   3.949   1.409   5.992
  730W        W 2394   4.132   0.068   5.367
  731W        W 2395   5.852   1.252   4.157
  732W        W 2396   6.620   0.506   7.201
  733W        W 2397   6.192   0.874   4.830
  734W        W 2398   6.483   1.910   7.044
  735W        W 2399   4.220   3.348   5.155
  736W        W 2400   5.286   1.482   3.864
  737W        W 2401   4.327   0.598   7.316
  738W        W 2402   4.893   0.742   4.204
  739W        W 2403   7.408   0.379   5.362
  740W        W 2404   0.254   2.600   3.833
  741W        W 2405   3.511   2.274   5.613
  742W        W 2406   5.847   0.747   3.448
  743W        W 2407   7.028   2.715   5.324
  744W        W 2408   6.431   1.553   6.633
  745W        W 2409   5.547   2.923   4.461
  746W        W 2410   6.062   2.234   6.997
  747W        W 2411   5.724   6.369   5.618
  748W        W 2412   3.700   2.172   6.351
  749W        W 2413   6.755   2.200   4.535
  750W        W 2414   5.495   2.169   4.901
  751W        W 2415   6.453   1.793   4.701
  752W        W 2416   3.772   0.778   5.951
  753W        W 2417   7.389   3.397   5.630
  754W        W 2418   5.054   3.087   5.113
  755W        W 2419   6.994   2.187   6.051
  756W        W 2420   6.893   1.333   6.696
  757W        W 2421   5.344   2.413   6.496
  758W        W 2422   4.779   2.624   5.638
  759W        W 2423   7.026   3.027   5.723
  760W        W 2424   4.104   0.839   3.314
  761W        W 2425   6.781   0.147   5.940
  762W        W 2426   4.887   0.573   3.707
  763W        W 2427   5.838   2.161   6.510
  764W        W 2428   6.199   2.552   6.586
  765W        W 2429   6.428   7.315   7.283
  766W        W 2430   4.086   3.039   4.766
  767W        W 2431   5.419   2.932   6.587
  768W        W 2432   5.993   2.809   4.234
  769W        W 2433   4.080   2.917   6.071
  770W        W 2434   3.731   3.395   4.671
  771W        W 2435   4.669   3.151   4.351
  772W        W 2436   6.086   1.701   4.338
  773W        W 2437   5.661   1.176   3.688
  774W        W 2438   5.724   2.573   6.799
  775W        W 2439   4.981   2.880   6.063
  776W        W 2440   4.753   0.415   0.089
  777W        W 2441   3.845   0.135   5.806
  778W        W 2442   6.807   1.559   3.847
  779W        W 2443   4.056   0.545   5.575
  780W        W 2444   3.984   0.742   3.921
  781W        W 2445   4.194   2.300   6.453
  782W        W 2446   6.112   1.886   5.784
  783W        W 2447   4.286   2.796   6.542
  784W        W 2448   5.769   2.456   4.561
  785W        W 2449   5.990   1.752   6.834
  786W        W 2450   4.809   2.664   6.498
  787W        W 2451   6.577   2.074   5.703
  788W        W 2452   5.046   2.922   4.627
  789W        W 2453   6.414   2.261   4.903
  790W        W 2454   4.142   0.970   6.273
  791W        W 2455   5.446   3.266   4.814
  792W        W 2456   6.448   2.892   5.556
  793W        W 2457   6.721   3.283   5.364
  794W        W 2458   5.631   3.160   4.004
  795W        W 2459   4.349   0.500   5.126
  796W        W 2460   6.848   3.846   7.038
  797W        W 2461   6.185   2.245   6.143
  798W        W 2462   7.419   3.327   4.767
  799W        W 2463   6.328   2.734   6.108
  800W        W 2464   4.441   1.383   6.151
  801W        W 2465   6.703   2.695   4.911
  802W        W 2466   4.164   1.846   6.198
  803W        W 2467   6.873   3.526   5.802
  804W        W 2468   3.782   2.681   6.414
  805W        W 2469   5.350   0.790   3.610
  806W        W 2470   3.656   1.677   6.332
  807W        W 2471   6.970   6.858   4.469
  808W        W 2472   6.237   2.679   4.673
  809W        W 2473   6.240   0.962   4.311
  810W        W 2474   7.016   1.781   5.752
  811W        W 2475   3.656   1.302   5.098
  812W        W 2476   5.044   0.713   5.629
  813W        W 2477   7.249   2.562   5.781
  814W        W 2478   7.179   0.002   5.643
  815W        W 2479   3.690   3.245   5.170
  816W        W 2480   3.904   0.259   7.393
  817W        W 2481   5.291   3.080   7.131
  818W        W 2482   6.688   1.923   5.203
  819W        W 2483   6.220   2.204   4.426
  820W        W 2484   5.316   0.501   4.030
  821W        W 2485   3.782   2.749   5.669
  822W        W 2486   5.361   1.026   4.111
  823W        W 2487   6.217   2.450   5.681
  824W        W 2488   4.941   1.078   3.822
  825W        W 2489   4.843   0.711   5.126
  826W        W 2490   3.683   2.497   3.829
  827W        W 2491   5.802   1.658   3.853
  828W        W 2492   7.423   2.451   6.244
  829W        W 2493   7.268   2.082   4.560
  830W        W 2494   4.586   3.130   4.853
  831W        W 2495   4.669   0.952   5.963
  832W        W 2496   3.918   3.012   3.838
  833W        W 2497   5.419   2.710   4.930
  834W        W 2498   3.583   0.677   5.451
  835W        W 2499   6.564   1.885   6.169
  836W        W 2500   4.975   3.436   4.738
  837W        W 2501   3.918   1.019   6.758
  838W        W 2502   6.341   2.063   6.593
  839W        W 2503   6.619   3.132   6.006
  840W        W 2504   5.773   0.754   3.974
  841W        W 2505   5.184   1.230   3.407
  842W        W 2506   6.641   2.396   6.338
  843W        W 2507   6.997   2.770   6.187
  844W        W 2508   3.656   1.154   6.326
  845W        W 2509   6.073   1.744   6.296
  846W        W 2510   3.771   1.904   5.878
  847W        W 2511   6.019   3.683   6.936
  848W        W 2512   6.299   3.538   5.178
  849W        W 2513   6.729   2.559   5.814
  850W        W 2514   5.660   3.489   4.391
  851W        W 2515   3.803   0.010   2.939
  852W        W 2516   7.305   6.184   0.792
  853W        W 2517   5.364   5.760   0.419
  854W        W 2518   4.117   4.718   3.434
  855W        W 2519   4.427   3.931   3.077
  856W        W 2520   6.437   4.116   1.989
  857W        W 2521   5.935   5.101   0.041
  858W        W 2522   6.350   4.713   3.563
  859W        W 2523   3.675   6.498   3.198
  860W        W 2524   5.204   6.086   0.017
  861W        W 2525   4.815   5.087   3.134
  862W        W 2526   7.019   4.264   1.779
  863W        W 2527   5.140   4.592   2.677
  864W        W 2528   6.173   6.329   3.623
  865W        W 2529   5.148   5.784   3.638
  866W        W 2530   4.062   5.091   3.807
  867W        W 2531   6.443   6.172   3.217
  868W        W 2532   4.576   3.935   2.591
  869W        W 2533   6.865   4.942   2.362
  870W        W 2534   6.249   4.729   0.225
  871W        W 2535   4.809   4.463   1.868
  872W        W 2536   6.220   6.446   2.367
  873W        W 2537   6.935   5.668   1.120
  874W        W 2538   3.755   4.114   1.469
  875W        W 2539   6.686   4.545   0.050
  876W        W 2540   3.665   6.659   2.402
  877W        W 2541   5.057   4.105   2.559
  878W        W 2542   7.248   3.771   1.648
  879W        W 2543   5.634   4.843   0.360
  880W        W 2544   4.244   4.925   2.516
  881W        W 2545   4.484   5.074   3.527
  882W        W 2546   5.698   4.236   2.065
  883W        W 2547   5.493   4.363   3.418
  884W        W 2548   5.856   4.564   7.447
  885W        W 2549   7.084   6.042   3.504
  886W        W 2550   6.523   4.394   1.573
  887W        W 2551   6.936   5.183   1.317
  888W        W 2552   7.207   4.539   2.252
  889W        W 2553   7.038   6.047   0.366
  890W        W 2554   6.764   4.810   0.523
  891W        W 2555   6.382   5.946   1.667
  892W        W 2556   6.728   5.118   1.858
  893W        W 2557   6.011   7.323   2.561
  894W        W 2558   6.915   4.269   1.261
  895W        W 2559   5.334   3.857   2.217
  896W        W 2560   6.722   3.909   1.569
  897W        W 2561   6.609   7.292   2.004
  898W        W 2562   3.301   5.740   2.127
  899W        W 2563   5.438   5.307   0.165
  900W        W 2564   6.309   5.719   2.986
  901W        W 2565   5.297   4.074   3.800
  902W        W 2566   4.820   4.021   2.129
  903W        W 2567   6.072   6.373   0.071
  904W        W 2568   7.015   4.738   1.028
  905W        W 2569   5.555   4.254   2.573
  906W        W 2570   5.489   4.886   7.356
  907W        W 2571   6.191   5.760   3.517
  908W        W 2572   6.535   3.969   1.081
  909W        W 2573   4.586   5.560   1.823
  910W        W 2574   4.949   4.207   3.412
  911W        W 2575   5.738   4.066   3.050
  912W        W 2576   6.251   4.199   0.085
  913W        W 2577   4.106   3.328   2.068
  914W        W 2578   3.763   4.615   1.321
  915W        W 2579   6.903   3.755   2.017
  916W        W 2580   6.844   4.179   2.269
  917W        W 2581   5.582   4.610   2.953
  918W        W 2582   3.151   5.815   0.088
  919W        W 2583   5.012   5.225   2.584
  920W        W 2584   7.229   5.685   0.714
  921W        W 2585   6.714   4.605   2.012
  922W        W 2586   4.599   4.631   3.270
  923W        W 2587   6.394   0.276   1.112
  924W        W 2588   4.764   4.321   2.916
  925W        W 2589   5.178   5.333   3.374
  926W        W 2590   4.291   4.507   2.853
  927W        W 2591   5.300   3.816   3.341
  928W        W 2592   5.922   6.076   7.166
  929W        W 2593   4.670   4.426   2.407
  930W        W 2594   4.726   3.987   1.622
  931W        W 2595   5.869   4.636   2.369
  932W        W 2596   6.892   6.736   3.972
  933W        W 2597   5.813   5.170   2.184
  934W        W 2598   4.922   3.844   2.972
  935W        W 2599   5.316   5.054   2.950
  936W        W 2600   5.101   4.656   3.191
  937W        W 2601   4.179   7.380   2.572
  938W        W 2602   4.317   4.995   3.034
  939W        W 2603   7.036   5.199   0.793
  940W        W 2604   5.434   4.914   2.438
  941W        W 2605   4.525   5.324   2.708
  942W        W 2606   4.454   4.160   3.537
  943W        W 2607   4.938   4.841   2.249
  944W        W 2608   5.279   5.316   2.137
  945W        W 2609   5.373   4.460   0.129
  946W        W 2610   3.857   7.028   2.741
  947W        W 2611   7.009   6.177   1.236
  948W        W 2612   6.792   6.272   0.772
  949W        W 2613   6.398   4.450   2.405
  950W        W 2614   5.221   4.410   2.192
  951W        W 2615   7.296   5.958   3.003
  952W        W 2616   7.340   4.047   2.112
  953W        W 2617   4.325   3.713   4.035
  954W        W 2618   5.356   6.270   3.682
  955W        W 2619   6.555   6.254   0.288
  956W        W 2620   6.186   4.577   1.941
  957W        W 2621   6.120   5.962   2.122
  958W        W 2622   4.880   6.187   3.453
  959W        W 2623   5.205   4.087   1.776
  960W        W 2624   3.667   5.872   7.415
  961W        W 2625   5.129   4.904   0.249
  962W        W 2626   5.260   4.212   3.002
  963W        W 2627   5.741   6.614   3.555
  964W        W 2628   6.706   6.451   3.555
  965W        W 2629   7.446   5.887   1.165
  966W        W 2630   5.226   3.509   1.754
  967W        W 2631   5.470   5.857   1.435
  968W        W 2632   3.473   4.193   1.042
  969W        W 2633   5.891   4.387   0.423
  970W        W 2634   3.858   7.133   1.737
  971W        W 2635   4.561   4.602   3.772
  972W        W 2636   6.213   3.981   1.529
  973W        W 2637   6.601   6.373   2.757
  974W        W 2638   5.707   4.092   0.031
  975W        W 2639   7.013   3.743   1.183
  976W        W 2640   6.914   4.720   1.545
  977W        W 2641   5.652   5.783   7.492
  978W        W 2642   4.698   4.819   2.732
  979W        W 2643   6.983   6.365   3.121
  980W        W 2644   3.940   5.200   3.312
  981W        W 2645   5.531   5.405   2.583
  982W        W 2646   6.094   5.557   2.459
  983W        W 2647   6.102   6.743   3.934
  984W        W 2648   6.043   4.406   2.807
  985W        W 2649   4.227   5.920   1.801
  986W        W 2650   6.628   6.816   2.294
  987W        W 2651   5.469   4.896   3.483
  988W        W 2652   4.625   4.928   7.489
  989W        W 2653   6.826   5.590   4.318
  990W        W 2654   4.500   4.723   4.953
  991W        W 2655   5.452   6.521   6.539
  992W        W 2656   3.721   4.457   6.615
  993W        W 2657   5.681   5.012   3.997
  994W        W 2658   5.508   5.893   4.014
  995W        W 2659   5.422   5.099   5.011
  996W        W 2660   5.836   5.936   5.361
  997W        W 2661   6.399   5.053   7.291
  998W        W 2662   5.277   4.762   5.446
  999W        W 2663   4.093   4.720   6.940
 1000W        W 2664   7.049   6.133   5.184
 1001W        W 2665   5.679   5.924   6.212
 1002W        W 2666   3.872   4.241   4.804
 1003W        W 2667   4.052   6.249   5.391
 1004W        W 2668   5.291   6.465   4.166
 1005W        W 2669   7.080   4.873   3.729
 1006W        W 2670   4.813   4.956   4.622
 1007W        W 2671   5.141   3.938   5.915
 1008W        W 2672   4.183   4.688   4.094
 1009W        W 2673   7.095   6.466   4.786
 1010W        W 2674   5.557   5.479   4.334
 1011W        W 2675   4.039   4.771   6.364
 1012W        W 2676   4.030   3.741   4.902
 1013W        W 2677   6.027   4.156   7.121
 1014W        W 2678   0.014   6.533   6.827
 1015W        W 2679   3.974   7.061   5.455
 1016W        W 2680   5.205   4.658   4.469
 1017W        W 2681   4.781   3.643   4.298
 1018W        W 2682   7.028   6.639   5.294
 1019W        W 2683   5.543   5.078   6.280
 1020W        W 2684   4.025   5.287   6.441
 1021W        W 2685   6.917   5.645   3.804
 1022W        W 2686   5.479   5.484   5.978
 1023W        W 2687   6.657   6.444   4.503
 1024W        W 2688   6.606   5.426   5.203
 1025W        W 2689   4.506   4.314   5.375
 1026W        W 2690   6.691   5.213   6.880
 1027W        W 2691   6.765   4.709   7.054
 1028W        W 2692   4.372   4.222   4.074
 1029W        W 2693   5.073   5.097   4.184
 1030W        W 2694   5.428   5.580   6.493
 1031W        W 2695   5.426   6.326   6.043
 1032W        W 2696   4.953   5.798   5.441
 1033W        W 2697   6.905   6.652   5.810
 1034W        W 2698   4.607   4.077   4.482
 1035W        W 2699   4.973   6.180   5.784
 1036W        W 2700   5.374   5.377   3.846
 1037W        W 2701   4.788   3.969   3.888
 1038W        W 2702   4.362   4.144   4.927
 1039W        W 2703   5.279   6.048   6.593
 1040W        W 2704   4.666   5.388   4.414
 1041W        W 2705   6.096   5.989   3.989
 1042W        W 2706   5.451   4.289   5.602
 1043W        W 2707   4.969   6.093   4.007
 1044W        W 2708   5.885   5.518   3.937
 1045W        W 2709   4.129   3.949   4.455
 1046W        W 2710   5.172   5.861   6.128
 1047W        W 2711   4.591   5.358   7.220
 1048W        W 2712   5.038   3.933   4.676
 1049W        W 2713   4.191   3.873   5.807
 1050W        W 2714   4.070   4.541   5.156
 1051W        W 2715   4.280   4.462   4.558
 1052W        W 2716   4.340   3.812   5.312
 1053W        W 2717   5.595   6.856   3.996
 1054W        W 2718   4.523   5.803   6.959
 1055W        W 2719   6.494   6.429   4.017
 1056W        W 2720   5.639   5.351   7.203
 1057W        W 2721   6.854   4.271   6.752
 1058W        W 2722   6.684   5.067   5.560
 1059W        W 2723   5.998   7.106   7.021
 1060W        W 2724   6.564   6.006   3.752
 1061W        W 2725   6.439   6.858   4.320
 1062W        W 2726   6.330   5.889   5.566
 1063W        W 2727   4.765   5.883   4.502
 1064W        W 2728   6.504   5.636   4.716
 1065W        W 2729   7.078   5.183   5.222
 1066W        W 2730   6.586   6.834   5.421
 1067W        W 2731   5.762   6.362   4.004
 1068W        W 2732   4.525   3.668   4.795
 1069W        W 2733   5.078   5.621   4.183
 1070W        W 2734   6.863   5.768   5.521
 1071W        W 2735   6.739   6.899   4.922
 1072W        W 2736   4.745   5.650   4.965
 1073W        W 2737   6.260   5.376   5.594
 1074W        W 2738   4.559   5.042   4.044
 1075W        W 2739   6.649   6.415   5.021
 1076W        W 2740   4.254   6.848   6.719
 1077W        W 2741   5.124   5.371   4.655
 1078W        W 2742   6.819   7.153   5.788
 1079W        W 2743   6.398   4.001   6.759
 1080W        W 2744   4.460   4.336   5.894
 1081W        W 2745   4.915   5.175   5.112
 1082W        W 2746   6.305   6.111   4.758
 1083W        W 2747   4.124   5.236   6.968
 1084W        W 2748   7.122   3.627   4.195
 1085W        W 2749   6.517   5.995   4.290
 1086W        W 2750   6.307   4.867   5.857
 1087W        W 2751   4.513   6.046   5.236
 1088W        W 2752   4.290   5.675   4.662
 1089W        W 2753   5.437   6.297   7.041
 1090W        W 2754   7.011   5.656   5.007
 1091W        W 2755   6.405   5.585   3.999
 1092W        W 2756   5.183   6.775   6.169
 1093W        W 2757   5.272   3.790   4.236
 1094W        W 2758   5.036   4.234   4.250
 1095W        W 2759   5.913   5.697   5.812
 1096W        W 2760   4.990   6.449   6.780
 1097W        W 2761   4.683   4.598   4.288
 1098W        W 2762   5.786   6.140   6.673
 1099W        W 2763   6.968   6.210   3.992
 1100W        W 2764   4.457   5.241   4.880
 1101W        W 2765   5.898   6.571   7.015
 1102W        W 2766   0.103   6.318   6.319
 1103W        W 2767   6.843   6.019   4.694
 1104W        W 2768   4.948   4.387   5.727
 1105W        W 2769   6.081   5.707   4.419
 1106W        W 2770   4.659   6.675   6.415
 1107W        W 2771   4.196   5.391   4.224
 1108W        W 2772   3.906   4.076   5.283
 1109W        W 2773   5.438   5.928   5.698
 1110W        W 2774   5.825   4.534   3.770
 1111W        W 2775   4.849   6.389   4.433
 1112W        W 2776   4.313   4.963   4.495
 1113W        W 2777   5.923   4.914   7.061
 1114W        W 2778   5.226   6.607   5.657
 1115W        W 2779   6.209   6.296   5.252
 1116W        W 2780   6.161   5.648   5.104
 1117W        W 2781   4.840   5.385   3.781
 1118W        W 2782   6.138   6.361   4.355
 1119W        W 2783   3.689   4.959   6.730
 1120W        W 2784   6.257   6.812   7.354
 1121W        W 2785   6.268   6.647   4.777
 1122W        W 2786   4.985   6.315   6.280
 1123W        W 2787   6.684   6.286   5.516
 1124W        W 2788   5.521   5.795   6.970
 1125W        W 2789   6.584   5.932   5.133
 1126W        W 2790   5.911   6.812   4.414
 1127W        W 2791   5.013   5.987   7.026
 1128W        W 2792   4.963   4.905   3.631
   7.50000   7.50000   7.50000
