DSPC BILAYER SELF-ASSEMBLY
 2792
    1DSPC   NC3    1   3.528   4.299   1.596
    1DSPC   PO4    2   3.530   4.083   1.174
    1DSPC   GL1    3   3.774   3.850   0.852
    1DSPC   GL2    4   3.999   3.968   0.553
    1DSPC   C1A    5   3.687   3.396   0.813
    1DSPC   C2A    6   3.401   3.034   0.828
    1DSPC   C3A    7   3.030   2.979   0.569
    1DSPC   C4A    8   2.804   3.152   0.215
    1DSPC   C5A    9   2.798   3.529   7.444
    1DSPC   C1B   10   3.803   3.632   0.355
    1DSPC   C2B   11   3.611   3.487   7.486
    1DSPC   C3B   12   3.249   3.441   7.222
    1DSPC   C4B   13   3.166   3.637   6.846
    1DSPC   C5B   14   2.927   3.604   6.479
    2DSPC   NC3   15   4.673   1.483   2.202
    2DSPC   PO4   16   4.939   1.457   1.804
    2DSPC   GL1   17   5.267   1.179   2.041
    2DSPC   GL2   18   5.254   0.808   2.107
    2DSPC   C1A   19   5.527   1.168   2.483
    2DSPC   C2A   20   5.906   1.256   2.693
    2DSPC   C3A   21   6.063   1.131   3.102
    2DSPC   C4A   22   6.187   0.701   3.186
    2DSPC   C5A   23   5.954   0.318   3.283
    2DSPC   C1B   24   5.268   0.739   2.544
    2DSPC   C2B   25   5.346   0.394   2.771
    2DSPC   C3B   26   5.557   0.128   3.043
    2DSPC   C4B   27   5.539   7.242   3.217
    2DSPC   C5B   28   5.456   6.798   3.185
    3DSPC   NC3   29   0.132   3.865   2.070
    3DSPC   PO4   30   7.336   3.567   2.145
    3DSPC   GL1   31   6.991   3.303   1.919
    3DSPC   GL2   32   6.633   3.409   1.826
    3DSPC   C1A   33   6.823   2.933   1.664
    3DSPC   C2A   34   6.399   2.808   1.676
    3DSPC   C3A   35   6.138   3.161   1.837
    3DSPC   C4A   36   6.148   3.628   1.747
    3DSPC   C5A   37   5.901   3.986   1.527
    3DSPC   C1B   38   6.407   3.274   1.423
    3DSPC   C2B   39   6.206   3.282   0.995
    3DSPC   C3B   40   5.921   3.598   0.811
    3DSPC   C4B   41   5.761   4.029   0.639
    3DSPC   C5B   42   5.890   4.498   0.696
    4DSPC   NC3   43   7.251   2.545   5.216
    4DSPC   PO4   44   6.958   2.767   5.484
    4DSPC   GL1   45   6.456   2.874   5.490
    4DSPC   GL2   46   6.334   3.231   5.568
    4DSPC   C1A   47   5.984   2.885   5.639
    4DSPC   C2A   48   5.933   3.291   5.886
    4DSPC   C3A   49   6.250   3.602   5.960
    4DSPC   C4A   50   6.241   4.002   6.154
    4DSPC   C5A   51   6.122   4.430   6.032
    4DSPC   C1B   52   6.273   3.660   5.398
    4DSPC   C2B   53   6.258   4.077   5.198
    4DSPC   C3B   54   6.591   4.385   5.255
    4DSPC   C4B   55   6.858   4.741   5.422
    4DSPC   C5B   56   7.155   4.999   5.157
    5DSPC   NC3   57   3.361   6.124   2.761
    5DSPC   PO4   58   3.522   6.414   2.460
    5DSPC   GL1   59   3.117   6.461   2.283
    5DSPC   GL2   60   3.217   6.774   2.178
    5DSPC   C1A   61   2.699   6.677   2.194
    5DSPC   C2A   62   2.220   6.705   2.162
    5DSPC   C3A   63   1.938   7.041   2.015
    5DSPC   C4A   64   2.103   7.410   1.699
    5DSPC   C5A   65   2.278   0.358   1.760
    5DSPC   C1B   66   3.266   7.197   2.023
    5DSPC   C2B   67   2.966   0.050   2.108
    5DSPC   C3B   68   2.646   0.395   2.119
    5DSPC   C4B   69   2.443   0.825   2.060
    5DSPC   C5B   70   2.546   1.226   1.812
    6DSPC   NC3   71   3.834   4.354   6.005
    6DSPC   PO4   72   4.097   4.383   6.380
    6DSPC   GL1   73   4.550   4.268   6.201
    6DSPC   GL2   74   4.673   4.082   5.880
    6DSPC   C1A   75   4.903   3.966   6.326
    6DSPC   C2A   76   5.154   3.563   6.329
    6DSPC   C3A   77   5.407   3.174   6.323
    6DSPC   C4A   78   5.341   2.719   6.340
    6DSPC   C5A   79   4.958   2.505   6.313
    6DSPC   C1B   80   4.931   3.689   5.876
    6DSPC   C2B   81   4.998   3.234   5.972
    6DSPC   C3B   82   5.062   2.802   5.915
    6DSPC   C4B   83   5.111   2.357   5.816
    6DSPC   C5B   84   4.923   1.964   5.649
    7DSPC   NC3   85   5.531   3.598   7.320
    7DSPC   PO4   86   5.398   3.587   6.922
    7DSPC   GL1   87   4.941   3.475   6.965
    7DSPC   GL2   88   4.615   3.695   6.978
    7DSPC   C1A   89   4.629   3.229   6.728
    7DSPC   C2A   90   4.264   2.959   6.815
    7DSPC   C3A   91   4.133   2.803   7.226
    7DSPC   C4A   92   3.845   2.789   0.088
    7DSPC   C5A   93   3.925   2.750   0.559
    7DSPC   C1B   94   4.538   3.590   7.456
    7DSPC   C2B   95   4.327   3.614   0.383
    7DSPC   C3B   96   4.159   3.586   0.848
    7DSPC   C4B   97   3.908   3.539   1.265
    7DSPC   C5B   98   3.756   3.691   1.706
    8DSPC   NC3   99   4.503   5.964   6.546
    8DSPC   PO4  100   4.870   6.136   6.320
    8DSPC   GL1  101   5.067   6.536   6.335
    8DSPC   GL2  102   5.298   6.427   6.592
    8DSPC   C1A  103   5.310   6.924   6.476
    8DSPC   C2A  104   5.779   7.024   6.542
    8DSPC   C3A  105   6.221   7.076   6.748
    8DSPC   C4A  106   6.577   7.309   6.972
    8DSPC   C5A  107   6.605   7.394   7.458
    8DSPC   C1B  108   5.686   6.588   6.793
    8DSPC   C2B  109   6.148   6.579   6.918
    8DSPC   C3B  110   6.567   6.500   7.075
    8DSPC   C4B  111   6.797   6.588   7.466
    8DSPC   C5B  112   7.062   6.601   0.346
    9DSPC   NC3  113   1.602   4.624   5.998
    9DSPC   PO4  114   1.191   4.452   6.065
    9DSPC   GL1  115   1.075   4.054   5.977
    9DSPC   GL2  116   1.279   3.771   5.919
    9DSPC   C1A  117   0.755   3.895   5.753
    9DSPC   C2A  118   0.308   3.884   5.731
    9DSPC   C3A  119   7.480   4.088   5.511
    9DSPC   C4A  120   7.356   3.973   5.122
    9DSPC   C5A  121   0.028   3.993   4.712
    9DSPC   C1B  122   1.076   3.495   5.608
    9DSPC   C2B  123   1.051   3.434   5.149
    9DSPC   C3B  124   1.162   3.404   4.679
    9DSPC   C4B  125   1.379   3.327   4.275
    9DSPC   C5B  126   1.692   3.062   4.043
   10DSPC   NC3  127   2.181   0.705   3.038
   10DSPC   PO4  128   2.321   1.033   3.347
   10DSPC   GL1  129   1.858   0.978   3.278
   10DSPC   GL2  130   1.569   1.172   3.125
   10DSPC   C1A  131   1.573   1.107   3.631
   10DSPC   C2A  132   1.513   1.492   3.880
   10DSPC   C3A  133   1.412   1.931   3.749
   10DSPC   C4A  134   1.141   2.206   3.502
   10DSPC   C5A  135   0.710   2.287   3.401
   10DSPC   C1B  136   1.398   1.529   3.375
   10DSPC   C2B  137   0.997   1.713   3.530
   10DSPC   C3B  138   0.543   1.815   3.654
   10DSPC   C4B  139   0.164   1.595   3.838
   10DSPC   C5B  140   7.251   1.364   3.890
   11DSPC   NC3  141   3.866   1.074   6.589
   11DSPC   PO4  142   4.176   1.019   6.876
   11DSPC   GL1  143   4.313   1.024   6.424
   11DSPC   GL2  144   4.533   0.795   6.275
   11DSPC   C1A  145   4.671   1.291   6.289
   11DSPC   C2A  146   4.893   1.550   6.616
   11DSPC   C3A  147   4.951   1.748   7.060
   11DSPC   C4A  148   5.184   1.828   0.007
   11DSPC   C5A  149   5.507   2.124   0.253
   11DSPC   C1B  150   4.930   0.575   6.285
   11DSPC   C2B  151   5.093   0.160   6.433
   11DSPC   C3B  152   5.450   7.412   6.602
   11DSPC   C4B  153   5.821   7.408   6.891
   11DSPC   C5B  154   6.152   7.418   7.214
   12DSPC   NC3  155   6.121   5.864   1.339
   12DSPC   PO4  156   5.941   6.107   1.748
   12DSPC   GL1  157   5.858   6.551   1.898
   12DSPC   GL2  158   5.958   6.658   2.235
   12DSPC   C1A  159   5.459   6.728   2.004
   12DSPC   C2A  160   5.236   6.721   2.391
   12DSPC   C3A  161   5.185   6.574   2.818
   12DSPC   C4A  162   5.335   6.287   3.154
   12DSPC   C5A  163   5.596   6.085   3.476
   12DSPC   C1B  164   6.202   6.946   2.516
   12DSPC   C2B  165   6.324   6.920   2.957
   12DSPC   C3B  166   6.376   6.573   3.238
   12DSPC   C4B  167   6.567   6.231   3.502
   12DSPC   C5B  168   6.977   6.049   3.706
   13DSPC   NC3  169   4.792   0.487   2.818
   13DSPC   PO4  170   4.850   0.903   3.032
   13DSPC   GL1  171   4.698   0.570   3.278
   13DSPC   GL2  172   4.949   0.642   3.474
   13DSPC   C1A  173   4.518   0.251   3.553
   13DSPC   C2A  174   4.348   7.412   3.850
   13DSPC   C3A  175   4.384   7.260   4.304
   13DSPC   C4A  176   4.698   7.122   4.644
   13DSPC   C5A  177   5.046   6.902   4.882
   13DSPC   C1B  178   5.024   0.235   3.693
   13DSPC   C2B  179   5.278   7.396   3.890
   13DSPC   C3B  180   5.399   7.377   4.336
   13DSPC   C4B  181   5.478   7.071   4.664
   13DSPC   C5B  182   5.705   6.676   4.769
   14DSPC   NC3  183   6.536   5.050   0.923
   14DSPC   PO4  184   6.200   5.341   0.742
   14DSPC   GL1  185   6.343   5.767   0.920
   14DSPC   GL2  186   6.328   6.090   0.734
   14DSPC   C1A  187   6.592   6.101   1.160
   14DSPC   C2A  188   6.496   6.521   1.420
   14DSPC   C3A  189   6.111   6.775   1.581
   14DSPC   C4A  190   5.797   7.048   1.778
   14DSPC   C5A  191   5.580   7.421   1.990
   14DSPC   C1B  192   6.425   6.511   0.924
   14DSPC   C2B  193   6.149   6.837   1.087
   14DSPC   C3B  194   6.000   7.215   1.321
   14DSPC   C4B  195   5.896   0.142   1.185
   14DSPC   C5B  196   6.154   0.464   1.006
   15DSPC   NC3  197   2.803   5.234   1.465
   15DSPC   PO4  198   2.379   5.393   1.435
   15DSPC   GL1  199   2.245   5.292   1.823
   15DSPC   GL2  200   2.291   4.960   1.720
   15DSPC   C1A  201   1.953   5.471   2.104
   15DSPC   C2A  202   1.524   5.581   2.108
   15DSPC   C3A  203   1.075   5.669   2.043
   15DSPC   C4A  204   0.833   5.372   1.736
   15DSPC   C5A  205   1.129   5.297   1.378
   15DSPC   C1B  206   2.039   4.626   1.883
   15DSPC   C2B  207   1.611   4.579   1.875
   15DSPC   C3B  208   1.199   4.440   1.750
   15DSPC   C4B  209   0.831   4.427   1.467
   15DSPC   C5B  210   0.536   4.591   1.138
   16DSPC   NC3  211   1.640   3.873   2.578
   16DSPC   PO4  212   1.652   3.707   2.989
   16DSPC   GL1  213   1.796   4.148   2.966
   16DSPC   GL2  214   1.515   4.371   2.782
   16DSPC   C1A  215   2.301   4.295   3.068
   16DSPC   C2A  216   2.488   4.741   2.981
   16DSPC   C3A  217   2.332   5.172   2.901
   16DSPC   C4A  218   2.474   5.614   2.825
   16DSPC   C5A  219   2.380   6.063   2.802
   16DSPC   C1B  220   1.589   4.868   2.861
   16DSPC   C2B  221   1.798   5.244   3.063
   16DSPC   C3B  222   1.750   5.577   3.405
   16DSPC   C4B  223   1.527   5.969   3.552
   16DSPC   C5B  224   1.277   6.292   3.842
   17DSPC   NC3  225   6.763   0.391   7.458
   17DSPC   PO4  226   6.288   0.498   0.024
   17DSPC   GL1  227   6.501   0.193   0.352
   17DSPC   GL2  228   6.535   7.337   0.468
   17DSPC   C1A  229   6.565   0.197   0.837
   17DSPC   C2A  230   6.642   0.469   1.224
   17DSPC   C3A  231   6.623   0.625   1.653
   17DSPC   C4A  232   6.300   0.550   2.000
   17DSPC   C5A  233   6.003   0.253   2.231
   17DSPC   C1B  234   6.466   7.204   0.942
   17DSPC   C2B  235   6.499   7.065   1.399
   17DSPC   C3B  236   6.286   7.197   1.797
   17DSPC   C4B  237   6.021   7.252   2.173
   17DSPC   C5B  238   5.645   7.045   2.336
   18DSPC   NC3  239   1.274   0.179   4.741
   18DSPC   PO4  240   1.594   0.032   5.068
   18DSPC   GL1  241   1.782   0.207   5.458
   18DSPC   GL2  242   2.094   0.408   5.563
   18DSPC   C1A  243   1.968   0.004   5.822
   18DSPC   C2A  244   2.304   7.362   6.119
   18DSPC   C3A  245   2.665   7.179   6.312
   18DSPC   C4A  246   3.005   7.462   6.411
   18DSPC   C5A  247   3.088   0.421   6.462
   18DSPC   C1B  248   2.519   0.611   5.605
   18DSPC   C2B  249   2.963   0.577   5.725
   18DSPC   C3B  250   3.262   0.694   6.069
   18DSPC   C4B  251   3.425   1.093   6.260
   18DSPC   C5B  252   3.711   1.433   6.214
   19DSPC   NC3  253   5.825   4.451   7.163
   19DSPC   PO4  254   5.526   4.488   6.757
   19DSPC   GL1  255   5.316   4.236   6.426
   19DSPC   GL2  256   5.383   3.953   6.566
   19DSPC   C1A  257   5.336   3.942   6.038
   19DSPC   C2A  258   5.407   3.497   5.858
   19DSPC   C3A  259   5.497   3.049   5.830
   19DSPC   C4A  260   5.775   2.866   6.129
   19DSPC   C5A  261   5.779   2.866   6.602
   19DSPC   C1B  262   4.992   4.064   6.833
   19DSPC   C2B  263   4.966   3.869   7.286
   19DSPC   C3B  264   5.014   3.425   7.449
   19DSPC   C4B  265   4.879   3.000   0.053
   19DSPC   C5B  266   4.735   2.565   0.104
   20DSPC   NC3  267   3.336   0.389   3.388
   20DSPC   PO4  268   3.157   0.698   3.216
   20DSPC   GL1  269   2.845   0.297   3.337
   20DSPC   GL2  270   3.011   7.497   3.475
   20DSPC   C1A  271   2.494   0.056   3.593
   20DSPC   C2A  272   2.090   7.415   3.800
   20DSPC   C3A  273   1.673   7.297   3.647
   20DSPC   C4A  274   1.421   6.916   3.694
   20DSPC   C5A  275   1.601   6.655   4.001
   20DSPC   C1B  276   2.830   7.205   3.792
   20DSPC   C2B  277   2.478   7.194   4.082
   20DSPC   C3B  278   2.149   7.383   4.350
   20DSPC   C4B  279   1.825   7.147   4.565
   20DSPC   C5B  280   1.677   6.713   4.517
   21DSPC   NC3  281   4.499   0.112   7.145
   21DSPC   PO4  282   4.322   0.112   6.716
   21DSPC   GL1  283   3.926   0.043   6.530
   21DSPC   GL2  284   3.853   7.206   6.404
   21DSPC   C1A  285   3.509   0.138   6.359
   21DSPC   C2A  286   3.267   0.185   5.978
   21DSPC   C3A  287   3.350   7.500   5.556
   21DSPC   C4A  288   3.277   7.349   5.126
   21DSPC   C5A  289   2.969   7.015   4.948
   21DSPC   C1B  290   3.629   6.799   6.483
   21DSPC   C2B  291   3.287   6.602   6.264
   21DSPC   C3B  292   2.968   6.791   5.988
   21DSPC   C4B  293   2.876   6.643   5.605
   21DSPC   C5B  294   2.773   6.211   5.480
   22DSPC   NC3  295   5.259   3.758   3.433
   22DSPC   PO4  296   5.492   3.439   3.685
   22DSPC   GL1  297   5.469   3.836   3.860
   22DSPC   GL2  298   5.112   3.958   3.881
   22DSPC   C1A  299   5.776   4.107   4.050
   22DSPC   C2A  300   6.097   4.400   3.954
   22DSPC   C3A  301   6.118   4.853   3.997
   22DSPC   C4A  302   6.014   5.300   3.935
   22DSPC   C5A  303   6.134   5.674   4.156
   22DSPC   C1B  304   4.850   4.331   4.022
   22DSPC   C2B  305   5.019   4.672   4.339
   22DSPC   C3B  306   4.842   5.005   4.594
   22DSPC   C4B  307   4.663   5.412   4.531
   22DSPC   C5B  308   4.394   5.585   4.196
   23DSPC   NC3  309   2.800   6.677   6.453
   23DSPC   PO4  310   2.745   6.542   6.853
   23DSPC   GL1  311   2.995   6.257   6.594
   23DSPC   GL2  312   2.872   6.021   6.345
   23DSPC   C1A  313   3.183   5.832   6.707
   23DSPC   C2A  314   3.152   5.370   6.670
   23DSPC   C3A  315   3.107   4.905   6.656
   23DSPC   C4A  316   2.783   4.579   6.715
   23DSPC   C5A  317   2.632   4.349   7.061
   23DSPC   C1B  318   2.716   5.613   6.572
   23DSPC   C2B  319   2.643   5.135   6.630
   23DSPC   C3B  320   2.381   4.781   6.463
   23DSPC   C4B  321   1.956   4.598   6.463
   23DSPC   C5B  322   1.790   4.295   6.755
   24DSPC   NC3  323   5.966   3.538   3.593
   24DSPC   PO4  324   5.739   3.860   3.443
   24DSPC   GL1  325   6.125   3.961   3.701
   24DSPC   GL2  326   6.218   3.871   4.039
   24DSPC   C1A  327   6.528   4.180   3.765
   24DSPC   C2A  328   6.908   4.197   4.016
   24DSPC   C3A  329   7.089   4.021   4.411
   24DSPC   C4A  330   7.113   3.703   4.751
   24DSPC   C5A  331   7.500   3.508   4.973
   24DSPC   C1B  332   6.652   3.789   4.229
   24DSPC   C2B  333   7.067   3.532   4.246
   24DSPC   C3B  334   7.353   3.155   4.186
   24DSPC   C4B  335   0.220   3.044   4.438
   24DSPC   C5B  336   0.401   2.934   4.850
   25DSPC   NC3  337   5.623   5.861   2.977
   25DSPC   PO4  338   5.738   6.236   2.651
   25DSPC   GL1  339   5.631   6.688   2.676
   25DSPC   GL2  340   5.821   6.935   2.843
   25DSPC   C1A  341   5.345   7.075   2.749
   25DSPC   C2A  342   5.104   7.420   2.912
   25DSPC   C3A  343   5.092   0.258   3.193
   25DSPC   C4A  344   5.396   0.604   3.234
   25DSPC   C5A  345   5.743   0.786   3.401
   25DSPC   C1B  346   5.776   7.390   2.658
   25DSPC   C2B  347   5.874   0.351   2.719
   25DSPC   C3B  348   5.721   0.765   2.867
   25DSPC   C4B  349   5.532   1.145   3.034
   25DSPC   C5B  350   5.721   1.589   3.077
   26DSPC   NC3  351   0.101   2.709   1.184
   26DSPC   PO4  352   0.164   3.106   1.020
   26DSPC   GL1  353   0.516   3.361   0.854
   26DSPC   GL2  354   0.644   3.386   0.486
   26DSPC   C1A  355   0.713   3.771   0.822
   26DSPC   C2A  356   0.666   4.227   0.789
   26DSPC   C3A  357   0.891   4.608   0.750
   26DSPC   C4A  358   1.325   4.701   0.679
   26DSPC   C5A  359   1.677   4.437   0.524
   26DSPC   C1B  360   0.909   3.572   0.105
   26DSPC   C2B  361   1.244   3.745   7.263
   26DSPC   C3B  362   1.479   3.870   6.833
   26DSPC   C4B  363   1.671   3.958   6.379
   26DSPC   C5B  364   2.041   4.166   6.176
   27DSPC   NC3  365   7.261   4.956   0.367
   27DSPC   PO4  366   7.049   4.553   0.425
   27DSPC   GL1  367   6.622   4.469   0.276
   27DSPC   GL2  368   6.432   4.694   0.514
   27DSPC   C1A  369   6.425   4.090   0.029
   27DSPC   C2A  370   6.025   3.794   0.014
   27DSPC   C3A  371   5.725   3.591   0.319
   27DSPC   C4A  372   5.433   3.636   0.703
   27DSPC   C5A  373   5.597   3.877   1.102
   27DSPC   C1B  374   6.384   4.282   0.680
   27DSPC   C2B  375   6.097   4.139   1.004
   27DSPC   C3B  376   5.861   4.446   1.232
   27DSPC   C4B  377   5.892   4.938   1.224
   27DSPC   C5B  378   5.741   5.409   1.203
   28DSPC   NC3  379   5.024   5.447   5.568
   28DSPC   PO4  380   5.256   5.838   5.529
   28DSPC   GL1  381   5.084   6.150   5.271
   28DSPC   GL2  382   5.110   6.345   5.539
   28DSPC   C1A  383   5.245   6.418   4.917
   28DSPC   C2A  384   5.274   6.623   4.501
   28DSPC   C3A  385   5.077   6.986   4.306
   28DSPC   C4A  386   4.871   7.396   4.204
   28DSPC   C5A  387   4.665   0.300   4.054
   28DSPC   C1B  388   4.864   6.757   5.540
   28DSPC   C2B  389   4.635   7.114   5.694
   28DSPC   C3B  390   4.500   0.049   5.593
   28DSPC   C4B  391   4.224   0.411   5.513
   28DSPC   C5B  392   3.914   0.743   5.600
   29DSPC   NC3  393   2.122   3.040   2.584
   29DSPC   PO4  394   1.965   3.474   2.621
   29DSPC   GL1  395   2.052   3.492   3.036
   29DSPC   GL2  396   1.855   3.216   3.082
   29DSPC   C1A  397   2.241   3.846   3.336
   29DSPC   C2A  398   2.071   3.772   3.778
   29DSPC   C3A  399   1.658   3.566   3.883
   29DSPC   C4A  400   1.302   3.246   3.775
   29DSPC   C5A  401   1.139   2.915   4.043
   29DSPC   C1B  402   1.537   2.999   3.354
   29DSPC   C2B  403   1.477   2.704   3.712
   29DSPC   C3B  404   1.241   2.384   3.979
   29DSPC   C4B  405   0.908   2.039   3.941
   29DSPC   C5B  406   0.529   1.839   4.162
   30DSPC   NC3  407   4.040   5.317   4.493
   30DSPC   PO4  408   3.891   5.673   4.716
   30DSPC   GL1  409   4.307   5.457   4.853
   30DSPC   GL2  410   4.380   5.071   4.809
   30DSPC   C1A  411   4.466   5.352   5.262
   30DSPC   C2A  412   4.194   5.168   5.593
   30DSPC   C3A  413   4.262   4.847   5.880
   30DSPC   C4A  414   4.621   4.735   6.158
   30DSPC   C5A  415   4.897   4.467   6.442
   30DSPC   C1B  416   4.623   4.826   5.118
   30DSPC   C2B  417   5.066   4.824   5.344
   30DSPC   C3B  418   5.432   4.662   5.601
   30DSPC   C4B  419   5.637   4.334   5.865
   30DSPC   C5B  420   5.755   4.119   6.253
   31DSPC   NC3  421   5.982   4.007   3.043
   31DSPC   PO4  422   6.289   3.724   3.227
   31DSPC   GL1  423   6.287   4.191   3.363
   31DSPC   GL2  424   5.953   4.324   3.469
   31DSPC   C1A  425   6.332   4.641   3.542
   31DSPC   C2A  426   6.077   5.027   3.514
   31DSPC   C3A  427   5.635   5.191   3.590
   31DSPC   C4A  428   5.167   5.250   3.678
   31DSPC   C5A  429   4.702   5.315   3.850
   31DSPC   C1B  430   5.753   4.673   3.701
   31DSPC   C2B  431   5.426   4.852   3.922
   31DSPC   C3B  432   5.023   4.772   3.823
   31DSPC   C4B  433   4.671   4.821   4.030
   31DSPC   C5B  434   4.422   5.060   4.256
   32DSPC   NC3  435   1.453   2.312   4.788
   32DSPC   PO4  436   1.413   2.742   4.623
   32DSPC   GL1  437   0.933   2.792   4.456
   32DSPC   GL2  438   0.564   2.664   4.470
   32DSPC   C1A  439   0.652   2.995   4.121
   32DSPC   C2A  440   0.712   3.080   3.730
   32DSPC   C3A  441   0.474   2.710   3.594
   32DSPC   C4A  442   0.351   2.291   3.762
   32DSPC   C5A  443   0.053   2.018   3.565
   32DSPC   C1B  444   0.352   2.289   4.298
   32DSPC   C2B  445   0.013   2.043   4.069
   32DSPC   C3B  446   7.129   1.851   3.791
   32DSPC   C4B  447   6.752   1.557   3.672
   32DSPC   C5B  448   6.323   1.346   3.544
   33DSPC   NC3  449   7.331   6.626   1.129
   33DSPC   PO4  450   7.384   6.175   1.075
   33DSPC   GL1  451   0.154   6.302   1.412
   33DSPC   GL2  452   7.488   6.502   1.599
   33DSPC   C1A  453   0.242   6.158   1.849
   33DSPC   C2A  454   0.549   6.247   2.080
   33DSPC   C3A  455   0.952   6.177   1.960
   33DSPC   C4A  456   1.371   6.093   2.084
   33DSPC   C5A  457   1.746   6.376   2.071
   33DSPC   C1B  458   0.466   6.613   1.709
   33DSPC   C2B  459   0.973   6.633   1.709
   33DSPC   C3B  460   1.477   6.740   1.641
   33DSPC   C4B  461   1.892   6.967   1.508
   33DSPC   C5B  462   2.337   6.958   1.731
   34DSPC   NC3  463   0.774   3.041   5.611
   34DSPC   PO4  464   0.934   2.606   5.764
   34DSPC   GL1  465   1.059   2.167   5.572
   34DSPC   GL2  466   1.335   2.064   5.340
   34DSPC   C1A  467   0.929   1.747   5.387
   34DSPC   C2A  468   0.618   1.710   5.048
   34DSPC   C3A  469   0.503   2.065   4.750
   34DSPC   C4A  470   0.220   2.444   4.779
   34DSPC   C5A  471   7.427   2.802   4.799
   34DSPC   C1B  472   1.153   2.439   5.181
   34DSPC   C2B  473   0.863   2.467   4.824
   34DSPC   C3B  474   0.872   2.288   4.397
   34DSPC   C4B  475   0.748   2.515   4.002
   34DSPC   C5B  476   0.977   2.667   3.628
   35DSPC   NC3  477   2.446   1.701   6.836
   35DSPC   PO4  478   1.967   1.763   6.785
   35DSPC   GL1  479   1.861   1.805   6.373
   35DSPC   GL2  480   1.830   1.488   6.299
   35DSPC   C1A  481   1.476   1.856   6.130
   35DSPC   C2A  482   1.303   1.758   5.738
   35DSPC   C3A  483   1.487   1.564   5.354
   35DSPC   C4A  484   1.761   1.180   5.328
   35DSPC   C5A  485   2.106   0.916   5.455
   35DSPC   C1B  486   2.011   1.092   6.332
   35DSPC   C2B  487   2.267   0.693   6.329
   35DSPC   C3B  488   2.285   0.370   6.022
   35DSPC   C4B  489   2.469   0.089   5.690
   35DSPC   C5B  490   2.860   0.110   5.516
   36DSPC   NC3  491   4.040   2.643   6.401
   36DSPC   PO4  492   3.937   2.849   6.066
   36DSPC   GL1  493   3.613   2.573   6.115
   36DSPC   GL2  494   3.767   2.258   6.181
   36DSPC   C1A  495   3.240   2.290   6.116
   36DSPC   C2A  496   3.156   1.853   5.899
   36DSPC   C3A  497   3.324   1.412   5.838
   36DSPC   C4A  498   3.382   0.974   5.678
   36DSPC   C5A  499   3.448   0.512   5.599
   36DSPC   C1B  500   3.508   1.888   6.259
   36DSPC   C2B  501   3.179   1.541   6.316
   36DSPC   C3B  502   2.955   1.152   6.095
   36DSPC   C4B  503   2.751   0.717   6.165
   36DSPC   C5B  504   2.766   0.257   6.076
   37DSPC   NC3  505   1.251   4.003   3.045
   37DSPC   PO4  506   1.255   4.436   3.221
   37DSPC   GL1  507   1.727   4.521   3.213
   37DSPC   GL2  508   1.958   4.573   2.891
   37DSPC   C1A  509   2.122   4.749   3.322
   37DSPC   C2A  510   2.515   4.524   3.462
   37DSPC   C3A  511   2.728   4.099   3.351
   37DSPC   C4A  512   2.967   3.947   2.947
   37DSPC   C5A  513   3.054   3.981   2.500
   37DSPC   C1B  514   1.972   4.289   2.538
   37DSPC   C2B  515   2.260   4.290   2.193
   37DSPC   C3B  516   2.728   4.274   2.184
   37DSPC   C4B  517   3.016   4.327   1.833
   37DSPC   C5B  518   3.058   4.491   1.423
   38DSPC   NC3  519   3.379   5.721   4.072
   38DSPC   PO4  520   3.051   5.959   4.261
   38DSPC   GL1  521   2.825   6.202   4.563
   38DSPC   GL2  522   2.535   6.187   4.388
   38DSPC   C1A  523   2.567   6.585   4.720
   38DSPC   C2A  524   2.277   6.881   4.473
   38DSPC   C3A  525   1.993   6.971   4.102
   38DSPC   C4A  526   1.563   7.146   4.131
   38DSPC   C5A  527   1.303   7.072   4.504
   38DSPC   C1B  528   2.212   6.198   4.723
   38DSPC   C2B  529   1.755   6.255   4.764
   38DSPC   C3B  530   1.276   6.307   4.767
   38DSPC   C4B  531   0.794   6.264   4.711
   38DSPC   C5B  532   0.385   6.096   4.949
   39DSPC   NC3  533   2.905   4.460   4.257
   39DSPC   PO4  534   2.901   4.072   4.440
   39DSPC   GL1  535   3.285   3.955   4.543
   39DSPC   GL2  536   3.325   4.212   4.794
   39DSPC   C1A  537   3.635   4.005   4.271
   39DSPC   C2A  538   3.890   4.287   4.030
   39DSPC   C3A  539   4.248   4.558   4.120
   39DSPC   C4A  540   4.544   4.607   4.510
   39DSPC   C5A  541   4.924   4.549   4.832
   39DSPC   C1B  542   3.696   4.400   5.044
   39DSPC   C2B  543   3.865   4.301   5.472
   39DSPC   C3B  544   4.267   4.335   5.729
   39DSPC   C4B  545   4.652   4.577   5.677
   39DSPC   C5B  546   4.671   5.015   5.585
   40DSPC   NC3  547   5.119   7.442   4.851
   40DSPC   PO4  548   5.144   0.083   5.324
   40DSPC   GL1  549   4.933   0.220   5.708
   40DSPC   GL2  550   4.844   0.000   5.995
   40DSPC   C1A  551   4.610   0.503   5.851
   40DSPC   C2A  552   4.176   0.520   6.008
   40DSPC   C3A  553   3.773   0.344   5.966
   40DSPC   C4A  554   3.678   7.384   5.938
   40DSPC   C5A  555   3.774   6.926   5.974
   40DSPC   C1B  556   4.900   7.059   6.134
   40DSPC   C2B  557   4.560   6.752   6.136
   40DSPC   C3B  558   4.288   6.298   6.097
   40DSPC   C4B  559   4.290   5.803   6.095
   40DSPC   C5B  560   4.373   5.336   6.175
   41DSPC   NC3  561   2.809   3.636   4.644
   41DSPC   PO4  562   2.418   3.814   4.440
   41DSPC   GL1  563   2.738   3.767   4.117
   41DSPC   GL2  564   3.086   3.669   4.192
   41DSPC   C1A  565   2.996   3.913   3.765
   41DSPC   C2A  566   3.354   4.087   3.832
   41DSPC   C3A  567   3.400   4.426   4.088
   41DSPC   C4A  568   3.686   4.746   4.146
   41DSPC   C5A  569   3.955   5.042   4.056
   41DSPC   C1B  570   3.466   3.525   4.352
   41DSPC   C2B  571   3.893   3.578   4.368
   41DSPC   C3B  572   4.157   3.868   4.156
   41DSPC   C4B  573   4.505   4.132   4.338
   41DSPC   C5B  574   4.585   4.170   4.792
   42DSPC   NC3  575   6.981   4.620   7.425
   42DSPC   PO4  576   7.359   4.929   7.382
   42DSPC   GL1  577   0.217   4.947   0.201
   42DSPC   GL2  578   0.196   5.239   0.367
   42DSPC   C1A  579   0.582   4.985   0.560
   42DSPC   C2A  580   0.997   5.117   0.733
   42DSPC   C3A  581   1.096   5.497   0.913
   42DSPC   C4A  582   1.315   5.880   0.810
   42DSPC   C5A  583   1.505   6.322   0.818
   42DSPC   C1B  584   0.163   5.239   0.818
   42DSPC   C2B  585   0.235   5.617   1.067
   42DSPC   C3B  586   0.352   5.859   1.438
   42DSPC   C4B  587   0.622   6.172   1.524
   42DSPC   C5B  588   0.783   6.459   1.270
   43DSPC   NC3  589   3.868   2.530   5.701
   43DSPC   PO4  590   3.992   2.551   5.291
   43DSPC   GL1  591   4.414   2.642   5.431
   43DSPC   GL2  592   4.545   2.321   5.410
   43DSPC   C1A  593   4.845   2.802   5.426
   43DSPC   C2A  594   5.298   2.716   5.477
   43DSPC   C3A  595   5.605   2.529   5.765
   43DSPC   C4A  596   6.047   2.404   5.826
   43DSPC   C5A  597   6.390   2.120   5.656
   43DSPC   C1B  598   5.007   2.324   5.308
   43DSPC   C2B  599   5.398   2.096   5.418
   43DSPC   C3B  600   5.644   1.843   5.086
   43DSPC   C4B  601   5.718   1.665   4.626
   43DSPC   C5B  602   5.663   1.250   4.377
   44DSPC   NC3  603   5.821   2.443   6.918
   44DSPC   PO4  604   5.579   2.093   7.052
   44DSPC   GL1  605   5.157   2.163   7.157
   44DSPC   GL2  606   5.151   2.352   7.440
   44DSPC   C1A  607   4.757   2.070   7.392
   44DSPC   C2A  608   4.453   1.767   7.296
   44DSPC   C3A  609   4.291   1.380   7.455
   44DSPC   C4A  610   4.314   1.029   0.249
   44DSPC   C5A  611   4.461   0.801   0.626
   44DSPC   C1B  612   5.009   2.182   0.360
   44DSPC   C2B  613   5.282   1.977   0.692
   44DSPC   C3B  614   5.429   1.600   0.913
   44DSPC   C4B  615   5.565   1.171   1.107
   44DSPC   C5B  616   5.801   0.771   1.219
   45DSPC   NC3  617   3.216   5.712   6.067
   45DSPC   PO4  618   3.397   5.283   6.066
   45DSPC   GL1  619   3.560   5.538   5.740
   45DSPC   GL2  620   3.671   5.266   5.586
   45DSPC   C1A  621   4.034   5.643   5.667
   45DSPC   C2A  622   4.527   5.528   5.738
   45DSPC   C3A  623   4.842   5.233   5.993
   45DSPC   C4A  624   5.048   4.830   5.895
   45DSPC   C5A  625   5.081   4.382   5.960
   45DSPC   C1B  626   3.813   4.828   5.584
   45DSPC   C2B  627   4.194   4.689   5.374
   45DSPC   C3B  628   4.483   4.348   5.260
   45DSPC   C4B  629   4.924   4.346   5.310
   45DSPC   C5B  630   5.283   4.169   5.529
   46DSPC   NC3  631   4.724   1.631   0.838
   46DSPC   PO4  632   4.835   1.233   0.997
   46DSPC   GL1  633   4.419   1.255   0.787
   46DSPC   GL2  634   4.298   1.489   0.516
   46DSPC   C1A  635   4.023   1.065   0.683
   46DSPC   C2A  636   3.968   0.672   0.453
   46DSPC   C3A  637   4.028   0.193   0.501
   46DSPC   C4A  638   3.842   7.275   0.319
   46DSPC   C5A  639   3.430   7.163   0.183
   46DSPC   C1B  640   3.892   1.336   0.268
   46DSPC   C2B  641   3.563   0.999   0.163
   46DSPC   C3B  642   3.192   0.727   7.464
   46DSPC   C4B  643   2.904   0.344   7.434
   46DSPC   C5B  644   2.658   0.037   0.247
   47DSPC   NC3  645   3.668   7.035   1.103
   47DSPC   PO4  646   3.778   6.957   1.563
   47DSPC   GL1  647   3.399   6.713   1.737
   47DSPC   GL2  648   3.361   6.364   1.894
   47DSPC   C1A  649   2.957   6.639   1.752
   47DSPC   C2A  650   2.687   6.784   1.421
   47DSPC   C3A  651   2.278   6.662   1.296
   47DSPC   C4A  652   2.249   6.229   1.385
   47DSPC   C5A  653   2.571   5.976   1.617
   47DSPC   C1B  654   3.104   6.026   1.703
   47DSPC   C2B  655   2.904   5.618   1.862
   47DSPC   C3B  656   2.673   5.218   2.028
   47DSPC   C4B  657   2.523   4.754   2.101
   47DSPC   C5B  658   2.505   4.432   1.761
   48DSPC   NC3  659   0.722   0.501   3.216
   48DSPC   PO4  660   1.030   0.748   2.972
   48DSPC   GL1  661   0.773   1.074   2.784
   48DSPC   GL2  662   1.061   1.238   2.674
   48DSPC   C1A  663   0.652   1.426   2.467
   48DSPC   C2A  664   1.066   1.675   2.401
   48DSPC   C3A  665   1.411   1.887   2.149
   48DSPC   C4A  666   1.594   1.915   1.715
   48DSPC   C5A  667   2.007   2.056   1.590
   48DSPC   C1B  668   1.482   1.181   2.609
   48DSPC   C2B  669   1.806   1.097   2.303
   48DSPC   C3B  670   2.221   1.295   2.278
   48DSPC   C4B  671   2.478   1.661   2.124
   48DSPC   C5B  672   2.894   1.803   1.982
   49DSPC   NC3  673   2.063   6.439   4.283
   49DSPC   PO4  674   2.396   6.424   3.958
   49DSPC   GL1  675   2.194   6.027   4.059
   49DSPC   GL2  676   1.968   5.922   4.331
   49DSPC   C1A  677   1.941   5.717   3.850
   49DSPC   C2A  678   1.952   5.272   3.795
   49DSPC   C3A  679   2.329   4.978   3.719
   49DSPC   C4A  680   2.518   4.645   3.969
   49DSPC   C5A  681   2.409   4.507   4.415
   49DSPC   C1B  682   1.741   5.490   4.258
   49DSPC   C2B  683   1.609   5.037   4.191
   49DSPC   C3B  684   1.542   4.643   4.462
   49DSPC   C4B  685   1.450   4.207   4.660
   49DSPC   C5B  686   1.352   3.823   4.928
   50DSPC   NC3  687   2.514   6.866   5.192
   50DSPC   PO4  688   2.179   7.159   5.119
   50DSPC   GL1  689   2.584   7.326   5.270
   50DSPC   GL2  690   2.795   7.486   4.997
   50DSPC   C1A  691   2.962   7.113   5.436
   50DSPC   C2A  692   3.316   6.849   5.282
   50DSPC   C3A  693   3.449   6.520   4.968
   50DSPC   C4A  694   3.721   6.362   4.617
   50DSPC   C5A  695   3.867   6.466   4.175
   50DSPC   C1B  696   3.120   7.407   4.639
   50DSPC   C2B  697   3.374   7.198   4.285
   50DSPC   C3B  698   3.784   7.338   4.077
   50DSPC   C4B  699   3.878   0.051   3.665
   50DSPC   C5B  700   3.831   0.282   3.246
   51DSPC   NC3  701   4.555   3.065   5.763
   51DSPC   PO4  702   4.438   2.919   6.181
   51DSPC   GL1  703   4.449   2.479   6.267
   51DSPC   GL2  704   4.530   2.560   6.576
   51DSPC   C1A  705   4.197   2.142   6.475
   51DSPC   C2A  706   3.877   1.792   6.583
   51DSPC   C3A  707   3.553   1.487   6.681
   51DSPC   C4A  708   3.346   1.493   7.034
   51DSPC   C5A  709   3.508   1.498   7.450
   51DSPC   C1B  710   4.242   2.450   6.881
   51DSPC   C2B  711   4.330   2.310   7.292
   51DSPC   C3B  712   4.361   2.043   0.203
   51DSPC   C4B  713   4.695   1.732   0.288
   51DSPC   C5B  714   5.100   1.584   0.456
   52DSPC   NC3  715   4.063   1.075   2.729
   52DSPC   PO4  716   4.479   1.230   2.880
   52DSPC   GL1  717   4.430   0.936   3.248
   52DSPC   GL2  718   4.337   0.736   3.028
   52DSPC   C1A  719   4.152   0.612   3.484
   52DSPC   C2A  720   3.737   0.537   3.709
   52DSPC   C3A  721   3.425   0.192   3.861
   52DSPC   C4A  722   3.386   7.239   3.766
   52DSPC   C5A  723   3.632   6.862   3.919
   52DSPC   C1B  724   4.329   0.292   3.058
   52DSPC   C2B  725   4.207   7.405   3.307
   52DSPC   C3B  726   3.969   7.057   3.552
   52DSPC   C4B  727   3.998   6.583   3.674
   52DSPC   C5B  728   4.008   6.122   3.814
   53DSPC   NC3  729   0.587   1.108   3.860
   53DSPC   PO4  730   0.917   0.794   3.986
   53DSPC   GL1  731   1.264   0.768   3.685
   53DSPC   GL2  732   1.219   0.565   3.418
   53DSPC   C1A  733   1.706   0.623   3.527
   53DSPC   C2A  734   1.992   0.263   3.397
   53DSPC   C3A  735   2.122   7.334   3.289
   53DSPC   C4A  736   2.043   6.932   3.073
   53DSPC   C5A  737   1.635   6.679   2.872
   53DSPC   C1B  738   1.399   0.185   3.479
   53DSPC   C2B  739   1.215   7.302   3.309
   53DSPC   C3B  740   1.235   7.054   2.896
   53DSPC   C4B  741   1.177   6.702   2.597
   53DSPC   C5B  742   0.833   6.609   2.275
   54DSPC   NC3  743   3.397   6.252   3.946
   54DSPC   PO4  744   3.097   5.939   3.719
   54DSPC   GL1  745   2.940   5.700   3.357
   54DSPC   GL2  746   2.798   5.901   3.083
   54DSPC   C1A  747   2.851   5.367   3.033
   54DSPC   C2A  748   2.741   5.213   2.592
   54DSPC   C3A  749   2.364   5.357   2.410
   54DSPC   C4A  750   2.155   5.758   2.459
   54DSPC   C5A  751   1.831   5.942   2.271
   54DSPC   C1B  752   3.021   5.736   2.701
   54DSPC   C2B  753   3.110   5.935   2.254
   54DSPC   C3B  754   2.782   6.201   2.042
   54DSPC   C4B  755   2.480   6.456   1.785
   54DSPC   C5B  756   2.035   6.544   1.719
   55DSPC   NC3  757   3.613   5.040   4.608
   55DSPC   PO4  758   3.457   5.395   4.823
   55DSPC   GL1  759   3.604   5.465   4.394
   55DSPC   GL2  760   3.487   5.224   4.145
   55DSPC   C1A  761   3.889   5.588   4.046
   55DSPC   C2A  762   4.189   5.381   3.775
   55DSPC   C3A  763   4.327   4.960   3.710
   55DSPC   C4A  764   4.570   4.572   3.580
   55DSPC   C5A  765   4.405   4.172   3.345
   55DSPC   C1B  766   3.336   4.921   3.824
   55DSPC   C2B  767   3.451   4.541   3.605
   55DSPC   C3B  768   3.241   4.217   3.340
   55DSPC   C4B  769   3.472   3.957   3.032
   55DSPC   C5B  770   3.381   3.641   2.695
   56DSPC   NC3  771   5.369   2.520   2.705
   56DSPC   PO4  772   5.602   2.335   2.302
   56DSPC   GL1  773   5.545   1.873   2.154
   56DSPC   GL2  774   5.239   1.591   2.245
   56DSPC   C1A  775   5.696   1.456   2.095
   56DSPC   C2A  776   5.704   1.031   2.055
   56DSPC   C3A  777   5.758   0.717   2.350
   56DSPC   C4A  778   5.509   0.357   2.281
   56DSPC   C5A  779   5.338   7.497   2.447
   56DSPC   C1B  780   5.030   1.198   2.442
   56DSPC   C2B  781   4.759   0.825   2.424
   56DSPC   C3B  782   4.336   0.660   2.535
   56DSPC   C4B  783   3.946   0.532   2.778
   56DSPC   C5B  784   3.773   0.096   2.767
   57DSPC   NC3  785   0.231   2.118   3.088
   57DSPC   PO4  786   0.196   1.984   2.676
   57DSPC   GL1  787   0.272   1.751   2.276
   57DSPC   GL2  788   7.409   1.660   2.116
   57DSPC   C1A  789   0.272   1.309   2.121
   57DSPC   C2A  790   7.359   1.146   1.954
   57DSPC   C3A  791   6.905   1.197   1.843
   57DSPC   C4A  792   6.472   1.075   1.819
   57DSPC   C5A  793   6.182   1.040   2.171
   57DSPC   C1B  794   6.916   1.680   2.079
   57DSPC   C2B  795   6.479   1.584   1.899
   57DSPC   C3B  796   6.065   1.368   1.765
   57DSPC   C4B  797   5.984   0.927   1.674
   57DSPC   C5B  798   5.800   0.554   1.877
   58DSPC   NC3  799   3.533   1.603   4.458
   58DSPC   PO4  800   3.648   1.555   3.967
   58DSPC   GL1  801   3.858   1.813   3.649
   58DSPC   GL2  802   4.136   1.615   3.524
   58DSPC   C1A  803   3.887   1.987   3.201
   58DSPC   C2A  804   4.018   2.000   2.728
   58DSPC   C3A  805   4.351   1.966   2.406
   58DSPC   C4A  806   4.785   2.068   2.439
   58DSPC   C5A  807   4.955   2.218   2.828
   58DSPC   C1B  808   4.393   1.923   3.280
   58DSPC   C2B  809   4.573   1.876   2.872
   58DSPC   C3B  810   4.921   1.655   2.670
   58DSPC   C4B  811   5.320   1.528   2.747
   58DSPC   C5B  812   5.696   1.698   2.559
   59DSPC   NC3  813   1.473   5.599   5.598
   59DSPC   PO4  814   1.375   6.018   5.502
   59DSPC   GL1  815   0.924   6.119   5.683
   59DSPC   GL2  816   0.827   6.458   5.646
   59DSPC   C1A  817   0.599   6.175   6.037
   59DSPC   C2A  818   0.460   6.406   6.399
   59DSPC   C3A  819   0.680   6.772   6.599
   59DSPC   C4A  820   1.038   7.101   6.638
   59DSPC   C5A  821   1.412   7.409   6.624
   59DSPC   C1B  822   1.131   6.763   5.823
   59DSPC   C2B  823   1.284   7.191   5.804
   59DSPC   C3B  824   1.438   0.117   5.779
   59DSPC   C4B  825   1.709   0.457   5.872
   59DSPC   C5B  826   1.997   0.780   5.916
   60DSPC   NC3  827   5.279   2.329   6.720
   60DSPC   PO4  828   5.337   2.584   7.013
   60DSPC   GL1  829   5.262   2.801   7.374
   60DSPC   GL2  830   5.469   3.071   7.457
   60DSPC   C1A  831   5.345   2.668   0.297
   60DSPC   C2A  832   5.684   2.511   0.576
   60DSPC   C3A  833   6.050   2.446   0.863
   60DSPC   C4A  834   6.412   2.213   0.942
   60DSPC   C5A  835   6.608   1.825   1.064
   60DSPC   C1B  836   5.811   2.889   0.246
   60DSPC   C2B  837   6.220   2.736   0.462
   60DSPC   C3B  838   6.547   2.685   0.804
   60DSPC   C4B  839   6.669   2.543   1.264
   60DSPC   C5B  840   7.035   2.455   1.528
   61DSPC   NC3  841   1.781   0.203   1.983
   61DSPC   PO4  842   2.086   0.115   2.319
   61DSPC   GL1  843   2.478   7.459   2.004
   61DSPC   GL2  844   2.689   0.099   1.664
   61DSPC   C1A  845   2.795   7.129   1.849
   61DSPC   C2A  846   3.115   7.058   1.494
   61DSPC   C3A  847   3.165   6.967   1.024
   61DSPC   C4A  848   3.139   6.875   0.533
   61DSPC   C5A  849   2.933   7.093   0.180
   61DSPC   C1B  850   2.944   0.366   1.296
   61DSPC   C2B  851   3.051   0.687   0.906
   61DSPC   C3B  852   3.135   0.959   0.484
   61DSPC   C4B  853   3.078   1.202   0.054
   61DSPC   C5B  854   3.037   1.082   7.097
   62DSPC   NC3  855   5.468   4.249   3.630
   62DSPC   PO4  856   5.100   4.225   3.382
   62DSPC   GL1  857   4.771   4.159   3.071
   62DSPC   GL2  858   4.624   4.502   3.053
   62DSPC   C1A  859   4.409   4.139   2.748
   62DSPC   C2A  860   3.985   3.993   2.586
   62DSPC   C3A  861   3.548   4.108   2.533
   62DSPC   C4A  862   3.255   4.363   2.797
   62DSPC   C5A  863   2.873   4.432   3.009
   62DSPC   C1B  864   4.126   4.441   3.043
   62DSPC   C2B  865   3.850   4.482   2.675
   62DSPC   C3B  866   3.693   4.543   2.234
   62DSPC   C4B  867   3.381   4.724   1.906
   62DSPC   C5B  868   3.205   5.172   1.831
   63DSPC   NC3  869   1.243   0.611   5.664
   63DSPC   PO4  870   1.142   1.057   5.559
   63DSPC   GL1  871   1.256   0.792   5.192
   63DSPC   GL2  872   1.303   0.447   5.186
   63DSPC   C1A  873   1.319   0.761   4.734
   63DSPC   C2A  874   1.527   1.105   4.482
   63DSPC   C3A  875   1.469   1.553   4.548
   63DSPC   C4A  876   1.552   1.810   4.910
   63DSPC   C5A  877   1.921   1.793   5.160
   63DSPC   C1B  878   1.684   0.647   5.324
   63DSPC   C2B  879   2.078   0.548   5.108
   63DSPC   C3B  880   2.453   0.301   5.200
   63DSPC   C4B  881   2.884   0.491   5.201
   63DSPC   C5B  882   2.997   0.913   5.325
   64DSPC   NC3  883   2.032   4.288   3.540
   64DSPC   PO4  884   1.893   4.369   3.973
   64DSPC   GL1  885   1.576   4.024   3.879
   64DSPC   GL2  886   1.347   4.181   4.103
   64DSPC   C1A  887   1.187   3.721   3.967
   64DSPC   C2A  888   0.890   3.439   4.190
   64DSPC   C3A  889   0.716   3.213   4.551
   64DSPC   C4A  890   0.890   3.009   4.896
   64DSPC   C5A  891   1.152   2.949   5.237
   64DSPC   C1B  892   1.570   3.825   4.319
   64DSPC   C2B  893   1.672   3.514   4.644
   64DSPC   C3B  894   1.522   3.290   5.020
   64DSPC   C4B  895   1.494   3.243   5.461
   64DSPC   C5B  896   1.573   3.349   5.904
   65DSPC   NC3  897   0.224   2.001   1.880
   65DSPC   PO4  898   0.652   1.851   1.957
   65DSPC   GL1  899   0.765   1.391   1.898
   65DSPC   GL2  900   0.953   1.208   2.156
   65DSPC   C1A  901   1.152   1.147   1.709
   65DSPC   C2A  902   1.603   1.048   1.824
   65DSPC   C3A  903   2.041   1.155   1.836
   65DSPC   C4A  904   2.196   1.590   1.723
   65DSPC   C5A  905   2.508   1.965   1.694
   65DSPC   C1B  906   1.367   1.363   2.145
   65DSPC   C2B  907   1.736   1.517   1.983
   65DSPC   C3B  908   1.975   1.856   2.084
   65DSPC   C4B  909   2.228   2.190   2.044
   65DSPC   C5B  910   2.289   2.527   1.741
   66DSPC   NC3  911   6.255   6.426   3.916
   66DSPC   PO4  912   6.061   6.328   4.316
   66DSPC   GL1  913   6.119   5.939   4.543
   66DSPC   GL2  914   6.425   5.776   4.611
   66DSPC   C1A  915   5.961   5.504   4.637
   66DSPC   C2A  916   5.714   5.218   4.944
   66DSPC   C3A  917   5.857   4.842   5.206
   66DSPC   C4A  918   6.142   4.517   4.972
   66DSPC   C5A  919   6.484   4.295   4.766
   66DSPC   C1B  920   6.632   5.376   4.686
   66DSPC   C2B  921   6.747   5.024   4.828
   66DSPC   C3B  922   6.862   4.650   4.928
   66DSPC   C4B  923   7.228   4.472   5.205
   66DSPC   C5B  924   0.179   4.361   5.098
   67DSPC   NC3  925   4.343   4.051   0.113
   67DSPC   PO4  926   4.473   4.214   0.518
   67DSPC   GL1  927   4.461   3.942   0.857
   67DSPC   GL2  928   4.663   3.610   0.843
   67DSPC   C1A  929   4.221   3.949   1.253
   67DSPC   C2A  930   4.043   4.144   1.652
   67DSPC   C3A  931   3.837   4.078   2.068
   67DSPC   C4A  932   3.700   3.688   2.250
   67DSPC   C5A  933   3.621   3.282   2.029
   67DSPC   C1B  934   4.939   3.203   0.904
   67DSPC   C2B  935   5.132   2.932   1.263
   67DSPC   C3B  936   5.038   2.695   1.671
   67DSPC   C4B  937   4.807   2.398   1.885
   67DSPC   C5B  938   4.631   2.010   1.956
   68DSPC   NC3  939   7.329   5.428   2.326
   68DSPC   PO4  940   7.383   5.634   1.922
   68DSPC   GL1  941   0.239   5.677   2.215
   68DSPC   GL2  942   0.343   5.339   2.028
   68DSPC   C1A  943   0.547   6.000   2.518
   68DSPC   C2A  944   1.018   6.134   2.457
   68DSPC   C3A  945   1.487   6.277   2.538
   68DSPC   C4A  946   1.838   6.029   2.751
   68DSPC   C5A  947   2.015   5.714   2.995
   68DSPC   C1B  948   0.764   5.111   2.160
   68DSPC   C2B  949   1.166   5.287   2.333
   68DSPC   C3B  950   1.584   5.123   2.359
   68DSPC   C4B  951   1.691   4.688   2.376
   68DSPC   C5B  952   1.535   4.276   2.269
   69DSPC   NC3  953   3.915   2.021   5.330
   69DSPC   PO4  954   3.658   1.860   4.928
   69DSPC   GL1  955   3.838   1.555   5.231
   69DSPC   GL2  956   3.617   1.366   5.415
   69DSPC   C1A  957   4.128   1.203   5.389
   69DSPC   C2A  958   4.516   1.343   5.620
   69DSPC   C3A  959   4.533   1.690   5.895
   69DSPC   C4A  960   4.509   1.769   6.347
   69DSPC   C5A  961   4.498   1.851   6.793
   69DSPC   C1B  962   3.816   1.213   5.785
   69DSPC   C2B  963   3.841   0.877   6.094
   69DSPC   C3B  964   3.622   0.642   6.423
   69DSPC   C4B  965   3.386   0.905   6.742
   69DSPC   C5B  966   3.545   1.040   7.158
   70DSPC   NC3  967   0.381   7.362   0.399
   70DSPC   PO4  968   0.356   0.096   0.790
   70DSPC   GL1  969   0.371   0.546   0.985
   70DSPC   GL2  970   0.153   0.661   1.265
   70DSPC   C1A  971   0.608   0.902   1.236
   70DSPC   C2A  972   0.628   1.340   1.440
   70DSPC   C3A  973   0.411   1.744   1.350
   70DSPC   C4A  974   7.489   1.912   1.411
   70DSPC   C5A  975   7.039   1.969   1.313
   70DSPC   C1B  976   0.233   1.031   1.579
   70DSPC   C2B  977   0.114   1.471   1.659
   70DSPC   C3B  978   7.175   1.587   1.647
   70DSPC   C4B  979   6.747   1.541   1.475
   70DSPC   C5B  980   6.293   1.655   1.421
   71DSPC   NC3  981   1.452   5.245   6.310
   71DSPC   PO4  982   1.223   5.440   5.982
   71DSPC   GL1  983   1.235   5.887   5.938
   71DSPC   GL2  984   1.534   6.081   6.002
   71DSPC   C1A  985   1.079   6.302   6.080
   71DSPC   C2A  986   1.107   6.666   6.333
   71DSPC   C3A  987   1.386   7.007   6.273
   71DSPC   C4A  988   1.641   7.345   6.168
   71DSPC   C5A  989   1.919   0.172   6.307
   71DSPC   C1B  990   1.535   6.542   6.070
   71DSPC   C2B  991   1.707   6.901   5.864
   71DSPC   C3B  992   2.127   7.031   5.773
   71DSPC   C4B  993   2.575   7.081   5.758
   71DSPC   C5B  994   2.938   7.304   5.908
   72DSPC   NC3  995   2.582   1.573   2.623
   72DSPC   PO4  996   2.161   1.795   2.708
   72DSPC   GL1  997   2.110   2.188   2.494
   72DSPC   GL2  998   1.756   2.189   2.395
   72DSPC   C1A  999   2.021   2.608   2.290
   72DSPC   C2A 1000   1.881   2.838   1.938
   72DSPC   C3A 1001   2.107   2.993   1.582
   72DSPC   C4A 1002   2.403   2.835   1.264
   72DSPC   C5A 1003   2.830   2.893   1.054
   72DSPC   C1B 1004   1.750   2.328   1.955
   72DSPC   C2B 1005   1.797   2.541   1.544
   72DSPC   C3B 1006   1.593   2.963   1.457
   72DSPC   C4B 1007   1.218   3.190   1.257
   72DSPC   C5B 1008   0.982   3.297   0.867
   73DSPC   NC3 1009   4.517   0.271   6.302
   73DSPC   PO4 1010   4.273   7.400   6.191
   73DSPC   GL1 1011   4.453   7.123   6.447
   73DSPC   GL2 1012   4.711   7.341   6.513
   73DSPC   C1A 1013   4.788   6.843   6.604
   73DSPC   C2A 1014   5.105   6.784   6.916
   73DSPC   C3A 1015   5.488   7.019   6.983
   73DSPC   C4A 1016   5.915   6.967   7.155
   73DSPC   C5A 1017   6.388   6.943   7.251
   73DSPC   C1B 1018   5.009   7.293   6.835
   73DSPC   C2B 1019   5.340   7.492   7.107
   73DSPC   C3B 1020   5.687   7.377   7.406
   73DSPC   C4B 1021   6.042   7.435   0.238
   73DSPC   C5B 1022   6.107   0.021   0.706
   74DSPC   NC3 1023   7.389   6.084   4.656
   74DSPC   PO4 1024   7.392   5.622   4.777
   74DSPC   GL1 1025   7.135   5.309   4.702
   74DSPC   GL2 1026   7.072   5.327   4.360
   74DSPC   C1A 1027   7.199   4.881   4.603
   74DSPC   C2A 1028   7.296   4.448   4.709
   74DSPC   C3A 1029   6.971   4.170   4.886
   74DSPC   C4A 1030   6.694   3.873   5.024
   74DSPC   C5A 1031   6.344   3.763   4.767
   74DSPC   C1B 1032   6.764   5.020   4.325
   74DSPC   C2B 1033   6.468   4.754   4.509
   74DSPC   C3B 1034   6.106   4.608   4.443
   74DSPC   C4B 1035   5.717   4.584   4.242
   74DSPC   C5B 1036   5.346   4.371   4.107
   75DSPC   NC3 1037   3.463   4.828   2.676
   75DSPC   PO4 1038   3.457   5.140   3.032
   75DSPC   GL1 1039   3.364   4.724   3.148
   75DSPC   GL2 1040   3.628   4.474   3.137
   75DSPC   C1A 1041   3.011   4.693   3.421
   75DSPC   C2A 1042   2.926   4.413   3.745
   75DSPC   C3A 1043   2.544   4.135   3.830
   75DSPC   C4A 1044   2.560   3.690   3.701
   75DSPC   C5A 1045   2.855   3.351   3.636
   75DSPC   C1B 1046   3.746   4.134   3.465
   75DSPC   C2B 1047   3.784   3.816   3.816
   75DSPC   C3B 1048   3.758   3.366   3.919
   75DSPC   C4B 1049   3.560   3.025   3.653
   75DSPC   C5B 1050   3.555   2.621   3.404
   76DSPC   NC3 1051   7.352   5.974   1.553
   76DSPC   PO4 1052   6.948   5.924   1.749
   76DSPC   GL1 1053   7.063   5.532   1.576
   76DSPC   GL2 1054   7.398   5.472   1.427
   76DSPC   C1A 1055   6.966   5.213   1.262
   76DSPC   C2A 1056   7.131   5.110   0.861
   76DSPC   C3A 1057   7.263   5.443   0.578
   76DSPC   C4A 1058   0.130   5.717   0.570
   76DSPC   C5A 1059   0.497   5.971   0.626
   76DSPC   C1B 1060   0.360   5.349   1.485
   76DSPC   C2B 1061   0.704   5.541   1.262
   76DSPC   C3B 1062   0.771   5.920   1.074
   76DSPC   C4B 1063   0.939   6.228   0.799
   76DSPC   C5B 1064   1.206   6.195   0.413
   77DSPC   NC3 1065   1.046   1.191   3.188
   77DSPC   PO4 1066   0.853   0.902   3.474
   77DSPC   GL1 1067   0.813   0.460   3.681
   77DSPC   GL2 1068   0.909   0.144   3.537
   77DSPC   C1A 1069   0.720   0.098   4.008
   77DSPC   C2A 1070   0.705   7.167   4.272
   77DSPC   C3A 1071   0.723   6.680   4.351
   77DSPC   C4A 1072   0.761   6.350   4.025
   77DSPC   C5A 1073   0.457   6.331   3.648
   77DSPC   C1B 1074   1.137   7.325   3.820
   77DSPC   C2B 1075   1.091   6.912   4.065
   77DSPC   C3B 1076   1.213   6.554   4.319
   77DSPC   C4B 1077   1.543   6.241   4.291
   77DSPC   C5B 1078   1.792   6.193   3.907
   78DSPC   NC3 1079   1.873   4.118   1.841
   78DSPC   PO4 1080   1.481   3.850   1.765
   78DSPC   GL1 1081   1.387   4.146   1.431
   78DSPC   GL2 1082   1.640   4.378   1.419
   78DSPC   C1A 1083   1.238   4.521   1.162
   78DSPC   C2A 1084   0.970   4.864   1.179
   78DSPC   C3A 1085   0.606   5.106   1.055
   78DSPC   C4A 1086   0.613   5.477   0.744
   78DSPC   C5A 1087   0.929   5.742   0.500
   78DSPC   C1B 1088   1.730   4.617   1.008
   78DSPC   C2B 1089   1.803   4.925   0.638
   78DSPC   C3B 1090   1.955   5.116   0.224
   78DSPC   C4B 1091   2.028   5.045   7.257
   78DSPC   C5B 1092   2.148   5.103   6.804
   79DSPC   NC3 1093   3.890   3.055   5.219
   79DSPC   PO4 1094   4.115   2.962   5.593
   79DSPC   GL1 1095   4.294   2.623   5.853
   79DSPC   GL2 1096   4.631   2.549   5.852
   79DSPC   C1A 1097   4.221   2.185   5.938
   79DSPC   C2A 1098   4.066   1.799   6.118
   79DSPC   C3A 1099   4.197   1.354   6.097
   79DSPC   C4A 1100   4.289   0.983   5.867
   79DSPC   C5A 1101   4.493   0.843   5.476
   79DSPC   C1B 1102   4.714   2.142   6.077
   79DSPC   C2B 1103   4.968   1.737   6.127
   79DSPC   C3B 1104   5.028   1.480   5.754
   79DSPC   C4B 1105   5.226   1.587   5.314
   79DSPC   C5B 1106   5.434   1.375   4.930
   80DSPC   NC3 1107   5.982   4.316   6.665
   80DSPC   PO4 1108   6.325   4.472   6.954
   80DSPC   GL1 1109   6.481   4.582   7.361
   80DSPC   GL2 1110   6.181   4.609   0.051
   80DSPC   C1A 1111   6.614   4.955   0.119
   80DSPC   C2A 1112   6.802   5.210   0.475
   80DSPC   C3A 1113   6.816   5.521   0.855
   80DSPC   C4A 1114   6.581   5.567   1.267
   80DSPC   C5A 1115   6.205   5.354   1.451
   80DSPC   C1B 1116   6.026   4.250   0.271
   80DSPC   C2B 1117   6.210   3.860   0.469
   80DSPC   C3B 1118   6.410   3.755   0.845
   80DSPC   C4B 1119   6.207   3.714   1.235
   80DSPC   C5B 1120   5.851   3.495   1.349
   81DSPC   NC3 1121   4.449   4.110   6.648
   81DSPC   PO4 1122   4.354   4.138   7.128
   81DSPC   GL1 1123   4.138   3.722   7.241
   81DSPC   GL2 1124   4.192   3.421   7.025
   81DSPC   C1A 1125   4.099   3.314   0.005
   81DSPC   C2A 1126   4.350   2.960   0.154
   81DSPC   C3A 1127   4.246   2.545   0.222
   81DSPC   C4A 1128   3.922   2.242   0.073
   81DSPC   C5A 1129   3.961   1.780   7.467
   81DSPC   C1B 1130   4.526   3.150   7.212
   81DSPC   C2B 1131   4.637   2.706   7.127
   81DSPC   C3B 1132   4.747   2.284   6.934
   81DSPC   C4B 1133   4.893   2.058   6.549
   81DSPC   C5B 1134   5.278   2.113   6.247
   82DSPC   NC3 1135   2.014   5.707   1.301
   82DSPC   PO4 1136   1.753   5.908   1.604
   82DSPC   GL1 1137   2.127   5.756   1.750
   82DSPC   GL2 1138   2.156   6.079   1.901
   82DSPC   C1A 1139   2.439   5.691   2.039
   82DSPC   C2A 1140   2.643   5.834   2.390
   82DSPC   C3A 1141   2.830   6.223   2.581
   82DSPC   C4A 1142   2.941   6.686   2.660
   82DSPC   C5A 1143   3.290   7.005   2.696
   82DSPC   C1B 1144   2.326   6.223   2.291
   82DSPC   C2B 1145   2.440   6.547   2.608
   82DSPC   C3B 1146   2.504   6.886   2.868
   82DSPC   C4B 1147   2.373   7.322   2.851
   82DSPC   C5B 1148   2.459   0.219   3.066
   83DSPC   NC3 1149   0.376   6.277   1.009
   83DSPC   PO4 1150   0.176   6.598   0.762
   83DSPC   GL1 1151   0.021   6.685   0.348
   83DSPC   GL2 1152   0.009   7.019   0.285
   83DSPC   C1A 1153   7.305   6.722   7.415
   83DSPC   C2A 1154   7.071   6.594   7.035
   83DSPC   C3A 1155   6.822   6.878   6.800
   83DSPC   C4A 1156   7.014   7.274   6.671
   83DSPC   C5A 1157   7.235   0.184   6.704
   83DSPC   C1B 1158   0.191   7.051   7.356
   83DSPC   C2B 1159   0.390   7.088   6.922
   83DSPC   C3B 1160   0.560   7.258   6.535
   83DSPC   C4B 1161   0.628   0.110   6.274
   83DSPC   C5B 1162   0.928   0.463   6.287
   84DSPC   NC3 1163   5.584   2.216   1.815
   84DSPC   PO4 1164   5.980   2.037   1.976
   84DSPC   GL1 1165   5.745   1.768   1.722
   84DSPC   GL2 1166   5.399   1.706   1.733
   84DSPC   C1A 1167   5.782   1.588   1.329
   84DSPC   C2A 1168   6.067   1.229   1.247
   84DSPC   C3A 1169   6.316   0.862   1.310
   84DSPC   C4A 1170   6.153   0.468   1.509
   84DSPC   C5A 1171   5.977   0.091   1.710
   84DSPC   C1B 1172   5.556   1.268   1.636
   84DSPC   C2B 1173   5.460   0.832   1.611
   84DSPC   C3B 1174   5.552   0.381   1.484
   84DSPC   C4B 1175   5.531   7.417   1.481
   84DSPC   C5B 1176   5.316   7.059   1.650
   85DSPC   NC3 1177   7.385   5.448   5.242
   85DSPC   PO4 1178   7.095   5.621   5.497
   85DSPC   GL1 1179   7.487   5.782   5.641
   85DSPC   GL2 1180   0.072   5.907   5.326
   85DSPC   C1A 1181   0.087   6.073   6.017
   85DSPC   C2A 1182   7.460   6.478   6.211
   85DSPC   C3A 1183   7.263   6.770   6.539
   85DSPC   C4A 1184   7.353   7.000   6.941
   85DSPC   C5A 1185   7.498   7.395   7.031
   85DSPC   C1B 1186   7.350   6.230   5.598
   85DSPC   C2B 1187   7.130   6.615   5.489
   85DSPC   C3B 1188   6.655   6.778   5.261
   85DSPC   C4B 1189   6.262   6.774   4.987
   85DSPC   C5B 1190   5.914   7.098   4.956
   86DSPC   NC3 1191   1.504   4.424   3.649
   86DSPC   PO4 1192   1.625   4.052   3.388
   86DSPC   GL1 1193   1.861   3.587   3.412
   86DSPC   GL2 1194   1.906   3.259   3.596
   86DSPC   C1A 1195   2.331   3.363   3.363
   86DSPC   C2A 1196   2.696   3.606   3.210
   86DSPC   C3A 1197   3.135   3.686   3.339
   86DSPC   C4A 1198   3.339   3.553   3.715
   86DSPC   C5A 1199   3.237   3.216   4.000
   86DSPC   C1B 1200   2.293   3.302   3.891
   86DSPC   C2B 1201   2.727   3.299   4.136
   86DSPC   C3B 1202   3.069   3.218   4.486
   86DSPC   C4B 1203   3.267   3.053   4.887
   86DSPC   C5B 1204   3.393   2.838   5.277
   87DSPC   NC3 1205   3.391   5.837   4.611
   87DSPC   PO4 1206   3.132   5.446   4.432
   87DSPC   GL1 1207   3.159   5.049   4.742
   87DSPC   GL2 1208   3.066   5.143   5.079
   87DSPC   C1A 1209   3.253   4.664   5.034
   87DSPC   C2A 1210   3.313   4.312   5.353
   87DSPC   C3A 1211   3.412   4.135   5.762
   87DSPC   C4A 1212   3.524   3.964   6.176
   87DSPC   C5A 1213   3.859   3.669   6.267
   87DSPC   C1B 1214   3.213   4.943   5.486
   87DSPC   C2B 1215   3.380   4.639   5.790
   87DSPC   C3B 1216   3.322   4.434   6.203
   87DSPC   C4B 1217   3.453   4.490   6.646
   87DSPC   C5B 1218   3.468   4.788   7.010
   88DSPC   NC3 1219   1.743   1.441   5.814
   88DSPC   PO4 1220   2.142   1.719   5.958
   88DSPC   GL1 1221   2.259   1.582   6.405
   88DSPC   GL2 1222   2.321   1.960   6.418
   88DSPC   C1A 1223   2.303   1.214   6.743
   88DSPC   C2A 1224   2.547   1.247   7.114
   88DSPC   C3A 1225   2.870   1.564   7.221
   88DSPC   C4A 1226   3.185   1.908   7.283
   88DSPC   C5A 1227   3.606   2.007   7.187
   88DSPC   C1B 1228   2.597   2.274   6.677
   88DSPC   C2B 1229   2.806   2.661   6.912
   88DSPC   C3B 1230   2.939   2.991   7.252
   88DSPC   C4B 1231   3.357   3.007   7.455
   88DSPC   C5B 1232   3.726   3.094   7.198
   89DSPC   NC3 1233   5.849   6.471   3.124
   89DSPC   PO4 1234   6.079   6.060   3.021
   89DSPC   GL1 1235   6.341   5.842   3.344
   89DSPC   GL2 1236   6.311   5.488   3.534
   89DSPC   C1A 1237   6.758   5.713   3.400
   89DSPC   C2A 1238   6.932   5.511   3.758
   89DSPC   C3A 1239   7.036   5.088   3.898
   89DSPC   C4A 1240   7.094   4.688   4.124
   89DSPC   C5A 1241   6.875   4.481   4.449
   89DSPC   C1B 1242   6.511   5.138   3.840
   89DSPC   C2B 1243   6.585   4.658   4.007
   89DSPC   C3B 1244   6.458   4.273   4.266
   89DSPC   C4B 1245   6.075   4.110   4.488
   89DSPC   C5B 1246   5.768   4.189   4.840
   90DSPC   NC3 1247   3.890   5.212   6.048
   90DSPC   PO4 1248   3.778   5.214   6.517
   90DSPC   GL1 1249   3.563   5.608   6.378
   90DSPC   GL2 1250   3.759   5.711   6.117
   90DSPC   C1A 1251   3.438   6.082   6.343
   90DSPC   C2A 1252   3.429   6.332   6.710
   90DSPC   C3A 1253   3.314   6.412   7.168
   90DSPC   C4A 1254   3.369   6.674   0.055
   90DSPC   C5A 1255   3.644   6.788   0.436
   90DSPC   C1B 1256   3.945   6.022   6.397
   90DSPC   C2B 1257   3.927   6.394   6.649
   90DSPC   C3B 1258   3.726   6.669   6.984
   90DSPC   C4B 1259   3.806   6.941   7.369
   90DSPC   C5B 1260   4.105   7.308   7.370
   91DSPC   NC3 1261   6.246   0.548   0.514
   91DSPC   PO4 1262   6.691   0.634   0.378
   91DSPC   GL1 1263   6.521   0.897   7.493
   91DSPC   GL2 1264   6.286   1.219   7.455
   91DSPC   C1A 1265   6.424   0.995   7.036
   91DSPC   C2A 1266   6.395   1.418   6.839
   91DSPC   C3A 1267   6.423   1.872   6.810
   91DSPC   C4A 1268   6.262   2.273   6.660
   91DSPC   C5A 1269   6.003   2.477   6.349
   91DSPC   C1B 1270   6.169   1.661   7.258
   91DSPC   C2B 1271   6.214   2.148   7.190
   91DSPC   C3B 1272   6.308   2.600   7.036
   91DSPC   C4B 1273   6.290   2.815   6.617
   91DSPC   C5B 1274   6.124   3.190   6.369
   92DSPC   NC3 1275   1.335   0.844   2.220
   92DSPC   PO4 1276   0.961   0.782   2.450
   92DSPC   GL1 1277   1.354   0.556   2.615
   92DSPC   GL2 1278   1.699   0.526   2.403
   92DSPC   C1A 1279   1.500   0.107   2.668
   92DSPC   C2A 1280   1.706   7.171   2.705
   92DSPC   C3A 1281   2.081   6.972   2.570
   92DSPC   C4A 1282   2.476   7.093   2.386
   92DSPC   C5A 1283   2.900   7.127   2.386
   92DSPC   C1B 1284   2.120   0.738   2.493
   92DSPC   C2B 1285   2.531   0.535   2.613
   92DSPC   C3B 1286   2.723   0.102   2.548
   92DSPC   C4B 1287   3.187   0.010   2.605
   92DSPC   C5B 1288   3.346   7.474   3.044
   93DSPC   NC3 1289   1.718   6.340   1.356
   93DSPC   PO4 1290   1.331   6.116   1.415
   93DSPC   GL1 1291   1.302   5.686   1.617
   93DSPC   GL2 1292   0.957   5.816   1.581
   93DSPC   C1A 1293   1.297   5.229   1.848
   93DSPC   C2A 1294   1.242   4.839   2.103
   93DSPC   C3A 1295   1.200   4.840   2.554
   93DSPC   C4A 1296   1.318   5.277   2.815
   93DSPC   C5A 1297   1.442   5.702   3.025
   93DSPC   C1B 1298   0.601   5.778   1.904
   93DSPC   C2B 1299   0.664   5.566   2.334
   93DSPC   C3B 1300   0.539   5.589   2.824
   93DSPC   C4B 1301   0.282   5.766   3.185
   93DSPC   C5B 1302   7.396   5.788   3.501
   94DSPC   NC3 1303   2.083   4.845   4.174
   94DSPC   PO4 1304   2.351   5.211   4.341
   94DSPC   GL1 1305   2.681   4.887   4.360
   94DSPC   GL2 1306   3.037   4.964   4.287
   94DSPC   C1A 1307   2.831   4.680   4.743
   94DSPC   C2A 1308   2.876   4.313   5.064
   94DSPC   C3A 1309   3.079   3.890   5.098
   94DSPC   C4A 1310   3.310   3.578   4.844
   94DSPC   C5A 1311   3.701   3.319   4.780
   94DSPC   C1B 1312   3.298   4.658   4.522
   94DSPC   C2B 1313   3.691   4.439   4.540
   94DSPC   C3B 1314   4.050   4.204   4.532
   94DSPC   C4B 1315   4.264   3.801   4.635
   94DSPC   C5B 1316   4.394   3.449   4.332
   95DSPC   NC3 1317   6.645   1.846   4.149
   95DSPC   PO4 1318   7.025   1.777   4.417
   95DSPC   GL1 1319   6.827   1.401   4.109
   95DSPC   GL2 1320   6.428   1.397   4.065
   95DSPC   C1A 1321   6.640   1.038   3.810
   95DSPC   C2A 1322   6.190   0.867   3.690
   95DSPC   C3A 1323   5.901   0.502   3.792
   95DSPC   C4A 1324   5.613   0.255   4.051
   95DSPC   C5A 1325   5.177   0.315   4.182
   95DSPC   C1B 1326   5.995   1.414   4.006
   95DSPC   C2B 1327   5.549   1.468   3.917
   95DSPC   C3B 1328   5.238   1.162   4.030
   95DSPC   C4B 1329   4.769   1.157   4.094
   95DSPC   C5B 1330   4.401   1.249   3.805
   96DSPC   NC3 1331   0.797   5.972   3.020
   96DSPC   PO4 1332   0.912   5.887   3.424
   96DSPC   GL1 1333   1.211   6.301   3.391
   96DSPC   GL2 1334   1.262   6.667   3.248
   96DSPC   C1A 1335   1.656   6.496   3.510
   96DSPC   C2A 1336   1.930   6.848   3.609
   96DSPC   C3A 1337   2.341   7.016   3.604
   96DSPC   C4A 1338   2.636   7.173   3.290
   96DSPC   C5A 1339   2.879   7.246   2.911
   96DSPC   C1B 1340   1.597   7.002   3.242
   96DSPC   C2B 1341   1.668   7.451   3.125
   96DSPC   C3B 1342   1.611   0.414   3.067
   96DSPC   C4B 1343   1.712   0.782   2.836
   96DSPC   C5B 1344   1.969   1.160   2.783
   97DSPC   NC3 1345   4.336   1.971   1.532
   97DSPC   PO4 1346   4.561   2.012   1.151
   97DSPC   GL1 1347   4.920   2.128   0.939
   97DSPC   GL2 1348   5.076   1.895   1.145
   97DSPC   C1A 1349   5.215   2.464   0.756
   97DSPC   C2A 1350   5.355   2.914   0.766
   97DSPC   C3A 1351   5.556   3.165   1.093
   97DSPC   C4A 1352   5.904   2.993   1.355
   97DSPC   C5A 1353   6.254   2.818   1.183
   97DSPC   C1B 1354   5.517   2.078   1.183
   97DSPC   C2B 1355   5.998   2.031   1.198
   97DSPC   C3B 1356   6.392   2.150   1.450
   97DSPC   C4B 1357   6.742   2.020   1.713
   97DSPC   C5B 1358   7.191   2.064   1.831
   98DSPC   NC3 1359   4.969   2.809   6.737
   98DSPC   PO4 1360   5.249   3.087   6.971
   98DSPC   GL1 1361   5.658   3.226   7.045
   98DSPC   GL2 1362   5.762   3.360   6.679
   98DSPC   C1A 1363   5.933   3.289   7.443
   98DSPC   C2A 1364   6.285   3.012   0.008
   98DSPC   C3A 1365   6.562   3.032   7.153
   98DSPC   C4A 1366   6.530   3.254   6.741
   98DSPC   C5A 1367   6.427   3.602   6.449
   98DSPC   C1B 1368   5.706   3.593   6.267
   98DSPC   C2B 1369   5.796   3.809   5.857
   98DSPC   C3B 1370   6.074   4.057   5.674
   98DSPC   C4B 1371   6.526   4.057   5.650
   98DSPC   C5B 1372   6.952   4.072   5.433
   99DSPC   NC3 1373   3.574   5.043   5.145
   99DSPC   PO4 1374   3.917   5.206   4.979
   99DSPC   GL1 1375   3.703   5.557   5.197
   99DSPC   GL2 1376   3.339   5.527   5.297
   99DSPC   C1A 1377   3.504   5.987   5.151
   99DSPC   C2A 1378   3.111   6.098   4.969
   99DSPC   C3A 1379   2.653   6.107   4.983
   99DSPC   C4A 1380   2.359   6.371   5.217
   99DSPC   C5A 1381   2.374   6.608   5.625
   99DSPC   C1B 1382   3.195   5.883   5.568
   99DSPC   C2B 1383   3.081   6.225   5.899
   99DSPC   C3B 1384   2.664   6.387   6.017
   99DSPC   C4B 1385   2.398   6.764   6.125
   99DSPC   C5B 1386   2.001   6.989   6.282
  100DSPC   NC3 1387   5.189   4.040   4.996
  100DSPC   PO4 1388   4.989   3.638   4.988
  100DSPC   GL1 1389   4.677   3.530   4.687
  100DSPC   GL2 1390   4.824   3.712   4.401
  100DSPC   C1A 1391   4.249   3.331   4.819
  100DSPC   C2A 1392   4.003   3.622   5.067
  100DSPC   C3A 1393   4.098   4.094   5.032
  100DSPC   C4A 1394   4.185   4.541   4.882
  100DSPC   C5A 1395   4.061   4.785   4.516
  100DSPC   C1B 1396   4.637   3.802   3.984
  100DSPC   C2B 1397   4.375   4.169   3.831
  100DSPC   C3B 1398   4.074   4.501   3.606
  100DSPC   C4B 1399   3.832   4.892   3.560
  100DSPC   C5B 1400   3.670   5.314   3.671
  101DSPC   NC3 1401   0.381   6.216   5.584
  101DSPC   PO4 1402   0.339   6.641   5.485
  101DSPC   GL1 1403   0.352   6.582   5.943
  101DSPC   GL2 1404   0.670   6.704   6.061
  101DSPC   C1A 1405   0.251   6.880   6.322
  101DSPC   C2A 1406   0.039   7.245   6.522
  101DSPC   C3A 1407   0.244   0.129   6.654
  101DSPC   C4A 1408   0.531   0.085   6.976
  101DSPC   C5A 1409   0.889   0.327   7.147
  101DSPC   C1B 1410   0.873   7.102   6.149
  101DSPC   C2B 1411   1.128   7.475   6.208
  101DSPC   C3B 1412   1.427   0.317   6.269
  101DSPC   C4B 1413   1.746   0.653   6.351
  101DSPC   C5B 1414   2.006   0.794   6.744
  102DSPC   NC3 1415   6.979   6.677   4.330
  102DSPC   PO4 1416   6.507   6.613   4.321
  102DSPC   GL1 1417   6.083   6.793   4.201
  102DSPC   GL2 1418   6.024   7.024   3.913
  102DSPC   C1A 1419   5.924   7.171   4.421
  102DSPC   C2A 1420   5.750   0.021   4.671
  102DSPC   C3A 1421   5.519   0.394   4.551
  102DSPC   C4A 1422   5.491   0.745   4.236
  102DSPC   C5A 1423   5.712   0.975   3.901
  102DSPC   C1B 1424   5.760   7.343   3.681
  102DSPC   C2B 1425   5.525   0.216   3.548
  102DSPC   C3B 1426   5.382   0.602   3.752
  102DSPC   C4B 1427   4.994   0.725   3.952
  102DSPC   C5B 1428   4.562   0.756   3.771
  103DSPC   NC3 1429   3.251   1.326   2.665
  103DSPC   PO4 1430   2.881   1.199   2.421
  103DSPC   GL1 1431   2.892   0.733   2.311
  103DSPC   GL2 1432   3.099   0.474   2.428
  103DSPC   C1A 1433   3.109   0.490   1.915
  103DSPC   C2A 1434   3.195   0.077   1.646
  103DSPC   C3A 1435   3.331   7.448   1.214
  103DSPC   C4A 1436   3.715   0.047   0.949
  103DSPC   C5A 1437   4.041   7.264   0.785
  103DSPC   C1B 1438   3.558   0.384   2.380
  103DSPC   C2B 1439   4.035   0.290   2.340
  103DSPC   C3B 1440   4.473   0.168   2.518
  103DSPC   C4B 1441   4.850   7.367   2.463
  103DSPC   C5B 1442   5.140   7.162   2.128
  104DSPC   NC3 1443   2.294   6.094   0.516
  104DSPC   PO4 1444   2.075   5.808   0.208
  104DSPC   GL1 1445   2.232   5.466   7.421
  104DSPC   GL2 1446   2.462   5.161   0.013
  104DSPC   C1A 1447   2.516   5.413   7.061
  104DSPC   C2A 1448   2.899   5.181   7.076
  104DSPC   C3A 1449   2.989   4.739   7.153
  104DSPC   C4A 1450   3.133   4.310   7.012
  104DSPC   C5A 1451   2.932   3.933   7.162
  104DSPC   C1B 1452   2.493   4.882   7.124
  104DSPC   C2B 1453   2.218   4.599   6.919
  104DSPC   C3B 1454   2.310   4.254   6.643
  104DSPC   C4B 1455   2.334   3.831   6.454
  104DSPC   C5B 1456   2.019   3.602   6.174
  105DSPC   NC3 1457   3.738   6.685   2.063
  105DSPC   PO4 1458   3.806   6.447   1.653
  105DSPC   GL1 1459   3.510   6.627   1.312
  105DSPC   GL2 1460   3.150   6.531   1.301
  105DSPC   C1A 1461   3.427   6.562   0.848
  105DSPC   C2A 1462   3.227   6.367   0.436
  105DSPC   C3A 1463   3.097   6.100   0.040
  105DSPC   C4A 1464   3.085   5.709   7.226
  105DSPC   C5A 1465   3.381   5.334   7.128
  105DSPC   C1B 1466   2.728   6.296   1.233
  105DSPC   C2B 1467   2.423   5.951   1.005
  105DSPC   C3B 1468   2.178   5.543   0.835
  105DSPC   C4B 1469   1.898   5.203   1.043
  105DSPC   C5B 1470   1.446   5.048   1.038
  106DSPC   NC3 1471   3.654   1.523   3.340
  106DSPC   PO4 1472   3.694   1.430   2.877
  106DSPC   GL1 1473   3.493   1.720   2.535
  106DSPC   GL2 1474   3.539   2.106   2.420
  106DSPC   C1A 1475   3.045   1.865   2.467
  106DSPC   C2A 1476   2.647   2.103   2.335
  106DSPC   C3A 1477   2.533   2.554   2.210
  106DSPC   C4A 1478   2.363   2.950   2.056
  106DSPC   C5A 1479   2.367   3.368   1.843
  106DSPC   C1B 1480   3.333   2.559   2.323
  106DSPC   C2B 1481   3.243   3.058   2.324
  106DSPC   C3B 1482   3.209   3.544   2.210
  106DSPC   C4B 1483   3.320   3.995   2.074
  106DSPC   C5B 1484   3.212   4.417   2.290
  107DSPC   NC3 1485   2.137   3.884   2.818
  107DSPC   PO4 1486   2.452   3.817   2.573
  107DSPC   GL1 1487   2.475   4.315   2.626
  107DSPC   GL2 1488   2.292   4.672   2.528
  107DSPC   C1A 1489   2.803   4.643   2.548
  107DSPC   C2A 1490   2.999   4.874   2.216
  107DSPC   C3A 1491   2.865   4.814   1.751
  107DSPC   C4A 1492   2.584   4.747   1.358
  107DSPC   C5A 1493   2.222   4.803   1.036
  107DSPC   C1B 1494   2.080   4.984   2.234
  107DSPC   C2B 1495   1.775   5.064   1.882
  107DSPC   C3B 1496   1.657   5.297   1.497
  107DSPC   C4B 1497   1.539   5.539   1.134
  107DSPC   C5B 1498   1.584   5.429   0.697
  108DSPC   NC3 1499   6.165   4.013   7.063
  108DSPC   PO4 1500   5.701   4.001   6.989
  108DSPC   GL1 1501   5.950   3.586   7.050
  108DSPC   GL2 1502   6.316   3.531   7.184
  108DSPC   C1A 1503   6.089   3.130   6.976
  108DSPC   C2A 1504   5.907   2.835   7.228
  108DSPC   C3A 1505   6.100   2.520   0.018
  108DSPC   C4A 1506   6.046   2.216   0.376
  108DSPC   C5A 1507   5.791   2.007   0.721
  108DSPC   C1B 1508   6.377   3.475   0.165
  108DSPC   C2B 1509   6.109   3.250   0.479
  108DSPC   C3B 1510   5.887   2.937   0.787
  108DSPC   C4B 1511   5.632   2.634   1.078
  108DSPC   C5B 1512   5.507   2.629   1.496
  109DSPC   NC3 1513   4.659   1.553   1.372
  109DSPC   PO4 1514   4.271   1.595   1.065
  109DSPC   GL1 1515   4.302   1.899   0.751
  109DSPC   GL2 1516   4.573   2.062   0.647
  109DSPC   C1A 1517   4.085   2.257   0.607
  109DSPC   C2A 1518   3.645   2.343   0.499
  109DSPC   C3A 1519   3.437   2.730   0.390
  109DSPC   C4A 1520   3.635   3.142   0.372
  109DSPC   C5A 1521   4.071   3.215   0.509
  109DSPC   C1B 1522   4.590   2.439   0.572
  109DSPC   C2B 1523   4.431   2.854   0.645
  109DSPC   C3B 1524   4.636   3.238   0.472
  109DSPC   C4B 1525   4.853   3.633   0.375
  109DSPC   C5B 1526   5.252   3.790   0.229
  110DSPC   NC3 1527   6.725   6.871   0.630
  110DSPC   PO4 1528   6.321   6.857   0.395
  110DSPC   GL1 1529   6.704   6.984   0.165
  110DSPC   GL2 1530   7.005   7.154   0.294
  110DSPC   C1A 1531   6.944   7.070   7.274
  110DSPC   C2A 1532   7.014   0.005   7.142
  110DSPC   C3A 1533   7.329   0.339   7.212
  110DSPC   C4A 1534   0.239   0.490   7.028
  110DSPC   C5A 1535   0.640   0.529   6.739
  110DSPC   C1B 1536   7.307   7.418   0.044
  110DSPC   C2B 1537   0.236   0.064   7.435
  110DSPC   C3B 1538   0.626   7.325   7.393
  110DSPC   C4B 1539   0.981   7.323   7.105
  110DSPC   C5B 1540   1.365   0.089   7.098
  111DSPC   NC3 1541   1.777   3.916   5.795
  111DSPC   PO4 1542   1.424   4.206   5.673
  111DSPC   GL1 1543   0.964   4.345   5.648
  111DSPC   GL2 1544   0.842   4.695   5.712
  111DSPC   C1A 1545   0.499   4.334   5.530
  111DSPC   C2A 1546   0.101   4.599   5.553
  111DSPC   C3A 1547   7.468   5.045   5.603
  111DSPC   C4A 1548   0.115   5.387   5.881
  111DSPC   C5A 1549   0.420   5.730   5.842
  111DSPC   C1B 1550   0.491   4.949   5.550
  111DSPC   C2B 1551   0.370   5.388   5.460
  111DSPC   C3B 1552   0.574   5.802   5.358
  111DSPC   C4B 1553   0.813   6.154   5.222
  111DSPC   C5B 1554   1.079   6.533   5.207
  112DSPC   NC3 1555   6.947   5.764   4.616
  112DSPC   PO4 1556   7.121   5.942   5.055
  112DSPC   GL1 1557   6.947   5.538   5.045
  112DSPC   GL2 1558   6.637   5.710   5.078
  112DSPC   C1A 1559   6.676   5.216   5.272
  112DSPC   C2A 1560   6.397   4.869   5.234
  112DSPC   C3A 1561   6.162   4.529   5.485
  112DSPC   C4A 1562   5.772   4.336   5.348
  112DSPC   C5A 1563   5.407   4.503   5.116
  112DSPC   C1B 1564   6.267   5.395   5.033
  112DSPC   C2B 1565   6.140   5.005   4.797
  112DSPC   C3B 1566   5.731   4.715   4.749
  112DSPC   C4B 1567   5.381   4.446   4.613
  112DSPC   C5B 1568   5.014   4.180   4.486
  113DSPC   NC3 1569   2.251   5.384   3.375
  113DSPC   PO4 1570   2.486   5.747   3.483
  113DSPC   GL1 1571   2.253   6.118   3.606
  113DSPC   GL2 1572   1.973   6.081   3.360
  113DSPC   C1A 1573   2.228   6.515   3.347
  113DSPC   C2A 1574   2.073   6.439   2.954
  113DSPC   C3A 1575   1.949   6.480   2.532
  113DSPC   C4A 1576   1.644   6.766   2.361
  113DSPC   C5A 1577   1.300   6.603   2.106
  113DSPC   C1B 1578   1.573   6.218   3.109
  113DSPC   C2B 1579   1.170   6.301   2.922
  113DSPC   C3B 1580   0.759   6.436   2.750
  113DSPC   C4B 1581   0.382   6.494   2.515
  113DSPC   C5B 1582   0.135   6.578   2.128
  114DSPC   NC3 1583   2.715   6.702   4.234
  114DSPC   PO4 1584   3.140   6.487   4.361
  114DSPC   GL1 1585   3.077   6.889   4.519
  114DSPC   GL2 1586   2.737   7.103   4.520
  114DSPC   C1A 1587   3.448   7.010   4.772
  114DSPC   C2A 1588   3.679   7.370   4.661
  114DSPC   C3A 1589   3.475   0.202   4.405
  114DSPC   C4A 1590   3.104   0.448   4.572
  114DSPC   C5A 1591   2.948   0.849   4.792
  114DSPC   C1B 1592   2.629   0.059   4.508
  114DSPC   C2B 1593   2.631   0.458   4.756
  114DSPC   C3B 1594   2.506   0.810   5.077
  114DSPC   C4B 1595   2.214   1.188   5.052
  114DSPC   C5B 1596   1.873   1.396   4.839
  115DSPC   NC3 1597   3.192   6.774   6.795
  115DSPC   PO4 1598   3.231   7.124   7.072
  115DSPC   GL1 1599   3.116   7.407   7.370
  115DSPC   GL2 1600   2.774   7.379   7.266
  115DSPC   C1A 1601   3.146   0.073   0.299
  115DSPC   C2A 1602   2.974   0.474   0.418
  115DSPC   C3A 1603   2.739   0.783   0.188
  115DSPC   C4A 1604   2.655   0.763   7.239
  115DSPC   C5A 1605   2.546   0.749   6.779
  115DSPC   C1B 1606   2.595   0.257   7.010
  115DSPC   C2B 1607   2.215   0.324   6.706
  115DSPC   C3B 1608   1.719   0.340   6.753
  115DSPC   C4B 1609   1.238   0.407   6.727
  115DSPC   C5B 1610   0.933   0.103   6.673
  116DSPC   NC3 1611   7.442   6.355   5.106
  116DSPC   PO4 1612   7.253   6.570   4.745
  116DSPC   GL1 1613   7.388   6.427   4.332
  116DSPC   GL2 1614   7.128   6.203   4.191
  116DSPC   C1A 1615   0.274   6.558   4.103
  116DSPC   C2A 1616   0.604   6.817   3.880
  116DSPC   C3A 1617   0.933   6.653   3.631
  116DSPC   C4A 1618   0.764   6.476   3.244
  116DSPC   C5A 1619   0.364   6.268   3.023
  116DSPC   C1B 1620   7.426   6.272   3.835
  116DSPC   C2B 1621   7.476   6.271   3.372
  116DSPC   C3B 1622   7.395   6.014   2.980
  116DSPC   C4B 1623   0.081   5.702   2.679
  116DSPC   C5B 1624   0.293   5.268   2.527
  117DSPC   NC3 1625   0.087   5.356   4.398
  117DSPC   PO4 1626   7.339   5.752   4.278
  117DSPC   GL1 1627   6.883   5.791   4.140
  117DSPC   GL2 1628   6.633   5.524   4.200
  117DSPC   C1A 1629   6.514   5.853   3.836
  117DSPC   C2A 1630   6.075   5.938   3.716
  117DSPC   C3A 1631   5.696   5.684   3.809
  117DSPC   C4A 1632   5.494   5.346   4.074
  117DSPC   C5A 1633   5.062   5.168   4.171
  117DSPC   C1B 1634   6.294   5.213   4.343
  117DSPC   C2B 1635   5.850   5.071   4.368
  117DSPC   C3B 1636   5.427   4.967   4.454
  117DSPC   C4B 1637   5.257   4.948   4.873
  117DSPC   C5B 1638   4.920   5.231   5.058
  118DSPC   NC3 1639   1.201   0.358   3.929
  118DSPC   PO4 1640   1.495   0.293   4.302
  118DSPC   GL1 1641   1.744   0.126   4.616
  118DSPC   GL2 1642   1.713   0.451   4.789
  118DSPC   C1A 1643   2.168   0.249   4.710
  118DSPC   C2A 1644   2.211   0.712   4.649
  118DSPC   C3A 1645   2.472   1.065   4.639
  118DSPC   C4A 1646   2.352   1.505   4.649
  118DSPC   C5A 1647   2.026   1.849   4.653
  118DSPC   C1B 1648   1.776   0.901   4.890
  118DSPC   C2B 1649   1.418   1.212   4.966
  118DSPC   C3B 1650   1.113   1.535   4.947
  118DSPC   C4B 1651   1.026   1.990   4.935
  118DSPC   C5B 1652   0.707   2.191   5.227
  119DSPC   NC3 1653   5.294   6.547   3.974
  119DSPC   PO4 1654   5.763   6.572   3.869
  119DSPC   GL1 1655   6.065   6.702   3.573
  119DSPC   GL2 1656   5.946   6.953   3.354
  119DSPC   C1A 1657   6.508   6.817   3.645
  119DSPC   C2A 1658   6.892   6.619   3.424
  119DSPC   C3A 1659   7.129   6.464   3.034
  119DSPC   C4A 1660   7.386   6.397   2.634
  119DSPC   C5A 1661   0.081   6.103   2.345
  119DSPC   C1B 1662   6.048   7.343   3.075
  119DSPC   C2B 1663   6.266   7.462   2.631
  119DSPC   C3B 1664   6.455   0.027   2.183
  119DSPC   C4B 1665   6.500   0.142   1.730
  119DSPC   C5B 1666   6.377   0.053   1.307
  120DSPC   NC3 1667   3.151   3.694   5.585
  120DSPC   PO4 1668   3.496   3.478   5.765
  120DSPC   GL1 1669   3.690   3.244   6.149
  120DSPC   GL2 1670   3.568   2.976   6.377
  120DSPC   C1A 1671   3.877   3.294   6.616
  120DSPC   C2A 1672   3.695   3.551   6.978
  120DSPC   C3A 1673   3.470   3.909   7.176
  120DSPC   C4A 1674   3.246   3.842   0.060
  120DSPC   C5A 1675   3.213   3.439   0.305
  120DSPC   C1B 1676   3.770   2.805   6.789
  120DSPC   C2B 1677   3.714   2.533   7.165
  120DSPC   C3B 1678   3.437   2.381   7.492
  120DSPC   C4B 1679   3.515   1.957   0.199
  120DSPC   C5B 1680   3.886   1.817   0.468
  121DSPC   NC3 1681   4.926   1.403   3.132
  121DSPC   PO4 1682   5.145   1.822   3.317
  121DSPC   GL1 1683   5.385   1.949   2.909
  121DSPC   GL2 1684   5.289   2.009   2.531
  121DSPC   C1A 1685   5.808   2.121   2.866
  121DSPC   C2A 1686   6.050   2.524   2.710
  121DSPC   C3A 1687   6.140   2.735   2.245
  121DSPC   C4A 1688   5.922   2.694   1.822
  121DSPC   C5A 1689   5.987   2.474   1.431
  121DSPC   C1B 1690   5.123   2.026   2.048
  121DSPC   C2B 1691   5.120   2.127   1.595
  121DSPC   C3B 1692   5.098   2.417   1.250
  121DSPC   C4B 1693   4.815   2.672   0.968
  121DSPC   C5B 1694   4.919   2.822   0.529
  122DSPC   NC3 1695   0.192   3.470   2.487
  122DSPC   PO4 1696   0.504   3.854   2.402
  122DSPC   GL1 1697   0.709   4.294   2.402
  122DSPC   GL2 1698   1.040   4.390   2.295
  122DSPC   C1A 1699   0.699   4.749   2.536
  122DSPC   C2A 1700   0.813   5.192   2.676
  122DSPC   C3A 1701   1.016   5.653   2.667
  122DSPC   C4A 1702   1.390   5.781   2.535
  122DSPC   C5A 1703   1.743   5.525   2.606
  122DSPC   C1B 1704   0.778   4.616   2.011
  122DSPC   C2B 1705   0.958   4.883   1.682
  122DSPC   C3B 1706   1.395   4.861   1.509
  122DSPC   C4B 1707   1.863   4.834   1.439
  122DSPC   C5B 1708   2.138   4.461   1.407
  123DSPC   NC3 1709   2.906   4.292   5.684
  123DSPC   PO4 1710   2.796   3.890   5.903
  123DSPC   GL1 1711   3.170   3.667   6.071
  123DSPC   GL2 1712   3.109   3.313   6.079
  123DSPC   C1A 1713   3.423   3.489   6.445
  123DSPC   C2A 1714   3.399   3.181   6.801
  123DSPC   C3A 1715   3.310   2.786   6.989
  123DSPC   C4A 1716   3.255   2.339   6.990
  123DSPC   C5A 1717   3.362   1.959   6.745
  123DSPC   C1B 1718   3.223   2.870   6.017
  123DSPC   C2B 1719   3.354   2.581   5.718
  123DSPC   C3B 1720   3.530   2.159   5.725
  123DSPC   C4B 1721   3.698   1.756   5.782
  123DSPC   C5B 1722   4.091   1.631   5.642
  124DSPC   NC3 1723   0.529   3.436   4.987
  124DSPC   PO4 1724   0.661   3.843   4.800
  124DSPC   GL1 1725   0.394   3.547   4.545
  124DSPC   GL2 1726   0.035   3.537   4.478
  124DSPC   C1A 1727   0.367   3.423   4.104
  124DSPC   C2A 1728   0.224   3.085   3.856
  124DSPC   C3A 1729   0.198   2.699   4.049
  124DSPC   C4A 1730   7.395   2.538   4.355
  124DSPC   C5A 1731   7.047   2.502   4.679
  124DSPC   C1B 1732   7.210   3.225   4.658
  124DSPC   C2B 1733   6.885   2.959   4.850
  124DSPC   C3B 1734   6.489   2.752   5.031
  124DSPC   C4B 1735   6.219   2.488   5.335
  124DSPC   C5B 1736   5.942   2.097   5.418
  125DSPC   NC3 1737   2.487   3.999   7.484
  125DSPC   PO4 1738   2.098   4.010   7.286
  125DSPC   GL1 1739   2.461   3.919   6.995
  125DSPC   GL2 1740   2.640   3.590   6.925
  125DSPC   C1A 1741   2.774   4.044   6.680
  125DSPC   C2A 1742   3.185   4.056   6.547
  125DSPC   C3A 1743   3.596   3.945   6.673
  125DSPC   C4A 1744   4.034   3.790   6.708
  125DSPC   C5A 1745   4.338   3.562   6.476
  125DSPC   C1B 1746   2.888   3.195   6.787
  125DSPC   C2B 1747   3.093   2.854   6.522
  125DSPC   C3B 1748   3.425   2.510   6.540
  125DSPC   C4B 1749   3.772   2.273   6.732
  125DSPC   C5B 1750   4.064   1.991   7.003
  126DSPC   NC3 1751   4.152   1.572   2.998
  126DSPC   PO4 1752   4.036   1.199   3.215
  126DSPC   GL1 1753   4.498   1.352   3.349
  126DSPC   GL2 1754   4.686   1.615   3.553
  126DSPC   C1A 1755   4.883   1.156   3.606
  126DSPC   C2A 1756   5.327   1.069   3.528
  126DSPC   C3A 1757   5.743   1.275   3.489
  126DSPC   C4A 1758   5.922   1.644   3.577
  126DSPC   C5A 1759   6.305   1.823   3.751
  126DSPC   C1B 1760   5.001   1.589   3.922
  126DSPC   C2B 1761   5.274   1.605   4.334
  126DSPC   C3B 1762   5.248   1.841   4.754
  126DSPC   C4B 1763   5.396   2.267   4.942
  126DSPC   C5B 1764   5.696   2.503   5.239
  127DSPC   NC3 1765   3.586   7.414   7.277
  127DSPC   PO4 1766   3.673   0.309   7.485
  127DSPC   GL1 1767   3.565   0.113   0.467
  127DSPC   GL2 1768   3.418   7.281   0.659
  127DSPC   C1A 1769   3.227   0.221   0.795
  127DSPC   C2A 1770   2.761   0.267   0.827
  127DSPC   C3A 1771   2.469   0.437   0.511
  127DSPC   C4A 1772   2.397   0.425   0.040
  127DSPC   C5A 1773   2.187   0.563   7.158
  127DSPC   C1B 1774   2.931   7.293   0.705
  127DSPC   C2B 1775   2.665   6.947   0.941
  127DSPC   C3B 1776   2.437   6.513   0.851
  127DSPC   C4B 1777   2.032   6.310   0.920
  127DSPC   C5B 1778   1.819   5.908   0.855
  128DSPC   NC3 1779   3.094   0.071   6.907
  128DSPC   PO4 1780   3.446   0.313   7.015
  128DSPC   GL1 1781   3.582   7.460   6.811
  128DSPC   GL2 1782   3.401   7.231   6.626
  128DSPC   C1A 1783   3.885   7.159   6.905
  128DSPC   C2A 1784   4.131   6.870   6.686
  128DSPC   C3A 1785   4.088   6.716   6.292
  128DSPC   C4A 1786   3.764   6.426   6.116
  128DSPC   C5A 1787   3.582   6.098   5.830
  128DSPC   C1B 1788   3.327   7.134   6.202
  128DSPC   C2B 1789   3.343   7.027   5.768
  128DSPC   C3B 1790   3.413   6.595   5.732
  128DSPC   C4B 1791   3.251   6.359   5.407
  128DSPC   C5B 1792   2.923   6.537   5.103
  129W        W 1793   0.146   2.504   2.547
  130W        W 1794   2.426   3.383   2.836
  131W        W 1795   1.375   3.689   0.283
  132W        W 1796   1.539   1.438   1.497
  133W        W 1797   2.238   1.965   0.865
  134W        W 1798   0.486   0.968   3.132
  135W        W 1799   1.129   0.240   3.026
  136W        W 1800   2.494   1.195   1.281
  137W        W 1801   2.890   1.080   3.447
  138W        W 1802   0.578   0.623   2.748
  139W        W 1803   0.477   2.178   2.305
  140W        W 1804   1.090   1.652   2.968
  141W        W 1805   0.521   2.925   1.929
  142W        W 1806   2.326   2.568   2.678
  143W        W 1807   1.453   2.000   3.177
  144W        W 1808   0.213   1.628   3.308
  145W        W 1809   2.683   2.611   3.050
  146W        W 1810   0.581   2.687   2.381
  147W        W 1811   3.689   2.393   1.895
  148W        W 1812   0.866   3.586   1.267
  149W        W 1813   2.847   1.155   0.911
  150W        W 1814   3.371   1.296   1.321
  151W        W 1815   7.334   0.855   0.905
  152W        W 1816   2.962   0.978   1.944
  153W        W 1817   0.212   3.099   1.542
  154W        W 1818   1.770   3.927   0.536
  155W        W 1819   0.986   2.668   2.689
  156W        W 1820   1.126   1.661   1.797
  157W        W 1821   0.669   1.530   7.110
  158W        W 1822   0.129   0.319   0.368
  159W        W 1823   2.765   3.122   3.110
  160W        W 1824   2.112   0.923   1.024
  161W        W 1825   2.837   1.270   2.971
  162W        W 1826   3.609   2.670   1.434
  163W        W 1827   0.986   2.223   2.418
  164W        W 1828   2.394   1.709   1.284
  165W        W 1829   0.642   1.372   3.424
  166W        W 1830   2.423   0.540   3.475
  167W        W 1831   3.103   2.872   2.817
  168W        W 1832   2.678   0.765   3.090
  169W        W 1833   2.977   2.005   3.973
  170W        W 1834   0.663   3.335   1.661
  171W        W 1835   1.685   1.271   1.000
  172W        W 1836   1.389   3.602   3.420
  173W        W 1837   0.471   6.863   0.418
  174W        W 1838   3.292   1.475   2.177
  175W        W 1839   3.405   2.833   1.885
  176W        W 1840   1.946   1.419   3.401
  177W        W 1841   3.325   0.936   2.322
  178W        W 1842   3.442   0.464   2.871
  179W        W 1843   2.952   1.005   1.415
  180W        W 1844   2.906   2.732   1.905
  181W        W 1845   2.887   1.521   1.279
  182W        W 1846   0.332   1.058   2.624
  183W        W 1847   0.951   2.913   1.630
  184W        W 1848   1.611   3.104   2.628
  185W        W 1849   0.069   1.500   2.597
  186W        W 1850   3.474   1.053   1.852
  187W        W 1851   3.057   0.855   2.753
  188W        W 1852   1.851   2.160   2.883
  189W        W 1853   1.714   0.880   1.375
  190W        W 1854   1.905   3.274   2.167
  191W        W 1855   0.752   2.450   1.957
  192W        W 1856   1.155   0.790   7.105
  193W        W 1857   1.752   1.597   2.467
  194W        W 1858   7.433   2.142   2.270
  195W        W 1859   2.316   1.647   0.451
  196W        W 1860   2.018   1.295   1.376
  197W        W 1861   1.025   2.170   2.945
  198W        W 1862   2.134   1.893   3.216
  199W        W 1863   2.515   2.126   2.858
  200W        W 1864   0.356   3.522   1.276
  201W        W 1865   1.858   2.701   2.859
  202W        W 1866   2.694   2.410   0.929
  203W        W 1867   3.850   1.092   1.489
  204W        W 1868   7.152   3.129   2.313
  205W        W 1869   0.146   2.975   2.295
  206W        W 1870   2.661   1.657   0.846
  207W        W 1871   2.196   2.425   3.159
  208W        W 1872   7.391   7.412   0.573
  209W        W 1873   0.664   1.855   3.171
  210W        W 1874   7.421   0.355   0.847
  211W        W 1875   6.965   0.175   0.403
  212W        W 1876   0.575   2.351   2.787
  213W        W 1877   1.410   1.925   2.669
  214W        W 1878   2.944   0.357   2.904
  215W        W 1879   3.716   1.673   1.232
  216W        W 1880   2.831   2.038   1.264
  217W        W 1881   2.842   3.899   0.351
  218W        W 1882   1.672   7.056   0.668
  219W        W 1883   3.005   2.656   0.135
  220W        W 1884   1.436   2.428   2.748
  221W        W 1885   2.650   3.366   1.153
  222W        W 1886   2.799   3.196   2.122
  223W        W 1887   3.160   3.288   1.778
  224W        W 1888   7.275   2.813   2.717
  225W        W 1889   3.384   1.960   1.945
  226W        W 1890   2.774   3.608   1.623
  227W        W 1891   1.473   0.571   1.785
  228W        W 1892   0.143   1.858   0.921
  229W        W 1893   3.151   3.379   1.275
  230W        W 1894   3.466   0.555   0.393
  231W        W 1895   3.147   2.884   1.446
  232W        W 1896   3.080   1.415   1.728
  233W        W 1897   1.161   3.441   1.700
  234W        W 1898   0.499   2.740   0.871
  235W        W 1899   1.874   1.749   1.193
  236W        W 1900   2.319   1.433   3.037
  237W        W 1901   0.692   1.869   2.666
  238W        W 1902   1.592   1.065   7.208
  239W        W 1903   2.765   2.531   1.446
  240W        W 1904   0.501   1.444   2.927
  241W        W 1905   3.187   2.471   1.132
  242W        W 1906   2.189   1.427   0.906
  243W        W 1907   3.856   0.810   2.339
  244W        W 1908   7.468   3.566   1.638
  245W        W 1909   0.506   2.669   1.486
  246W        W 1910   3.263   1.825   1.465
  247W        W 1911   1.883   7.287   1.094
  248W        W 1912   2.686   0.630   1.649
  249W        W 1913   0.230   2.516   2.020
  250W        W 1914   2.219   0.809   1.518
  251W        W 1915   1.193   2.607   3.171
  252W        W 1916   2.585   0.708   1.137
  253W        W 1917   2.282   2.937   3.056
  254W        W 1918   0.631   3.223   2.340
  255W        W 1919   0.580   2.172   1.566
  256W        W 1920   0.998   2.880   2.157
  257W        W 1921   1.948   0.684   1.969
  258W        W 1922   0.071   2.377   1.559
  259W        W 1923   0.810   3.635   2.053
  260W        W 1924   3.584   2.182   1.306
  261W        W 1925   0.648   3.092   1.219
  262W        W 1926   2.352   2.251   1.286
  263W        W 1927   0.379   2.288   1.117
  264W        W 1928   0.291   3.386   1.993
  265W        W 1929   2.388   0.226   1.264
  266W        W 1930   2.419   7.396   0.821
  267W        W 1931   3.591   1.524   1.729
  268W        W 1932   2.855   2.483   2.586
  269W        W 1933   2.637   2.975   2.594
  270W        W 1934   1.745   1.630   2.973
  271W        W 1935   2.465   1.046   2.705
  272W        W 1936   2.703   3.090   1.593
  273W        W 1937   1.676   2.458   3.275
  274W        W 1938   3.225   2.373   1.645
  275W        W 1939   2.381   3.388   2.329
  276W        W 1940   3.130   1.906   4.478
  277W        W 1941   0.940   1.014   4.940
  278W        W 1942   3.020   0.584   6.952
  279W        W 1943   0.351   0.543   6.322
  280W        W 1944   0.217   1.372   5.177
  281W        W 1945   1.275   1.248   6.844
  282W        W 1946   7.153   1.755   5.338
  283W        W 1947   1.538   2.055   6.900
  284W        W 1948   3.543   2.321   5.186
  285W        W 1949   1.082   3.864   4.474
  286W        W 1950   2.784   1.729   4.796
  287W        W 1951   2.751   1.471   3.785
  288W        W 1952   1.982   2.400   5.631
  289W        W 1953   2.293   2.726   5.872
  290W        W 1954   0.069   1.153   4.732
  291W        W 1955   0.340   3.075   5.314
  292W        W 1956   7.132   3.235   5.666
  293W        W 1957   1.024   2.626   6.271
  294W        W 1958   3.756   7.143   5.211
  295W        W 1959   1.757   2.271   5.202
  296W        W 1960   2.033   1.168   4.391
  297W        W 1961   3.487   3.356   5.271
  298W        W 1962   3.688   2.713   4.885
  299W        W 1963   7.414   2.077   4.569
  300W        W 1964   1.050   2.164   6.036
  301W        W 1965   2.514   1.233   4.180
  302W        W 1966   1.103   1.297   7.308
  303W        W 1967   2.219   0.756   4.139
  304W        W 1968   0.580   3.500   5.488
  305W        W 1969   1.103   7.482   4.298
  306W        W 1970   2.552   0.921   3.792
  307W        W 1971   0.820   0.715   5.365
  308W        W 1972   7.365   2.393   5.707
  309W        W 1973   1.996   3.165   5.144
  310W        W 1974   3.293   2.378   3.790
  311W        W 1975   1.877   2.148   6.066
  312W        W 1976   2.920   1.298   4.498
  313W        W 1977   3.003   1.069   3.985
  314W        W 1978   2.485   2.445   5.493
  315W        W 1979   2.682   1.712   4.283
  316W        W 1980   2.925   1.672   5.329
  317W        W 1981   2.820   1.345   6.677
  318W        W 1982   2.605   3.460   6.133
  319W        W 1983   2.113   2.655   5.200
  320W        W 1984   3.136   3.157   5.592
  321W        W 1985   1.030   0.505   4.397
  322W        W 1986   7.240   1.904   5.832
  323W        W 1987   1.469   2.359   6.294
  324W        W 1988   2.887   1.852   6.626
  325W        W 1989   0.610   0.804   4.571
  326W        W 1990   2.268   1.979   5.514
  327W        W 1991   2.565   1.576   5.701
  328W        W 1992   1.776   1.912   5.620
  329W        W 1993   0.293   3.178   5.813
  330W        W 1994   2.172   1.615   4.156
  331W        W 1995   1.030   1.051   4.417
  332W        W 1996   0.411   0.693   3.593
  333W        W 1997   1.474   2.298   5.772
  334W        W 1998   1.119   1.730   6.965
  335W        W 1999   2.577   0.408   3.975
  336W        W 2000   0.836   0.819   5.905
  337W        W 2001   0.564   1.307   4.754
  338W        W 2002   3.378   1.864   3.652
  339W        W 2003   2.115   1.481   5.485
  340W        W 2004   3.481   2.020   4.135
  341W        W 2005   2.787   2.235   4.678
  342W        W 2006   0.263   2.514   6.501
  343W        W 2007   1.643   4.059   0.031
  344W        W 2008   1.727   0.264   3.860
  345W        W 2009   3.063   2.784   3.377
  346W        W 2010   1.036   0.883   6.568
  347W        W 2011   2.745   2.034   5.689
  348W        W 2012   1.587   1.578   7.113
  349W        W 2013   1.611   2.769   5.146
  350W        W 2014   2.855   2.500   5.849
  351W        W 2015   0.116   2.727   6.060
  352W        W 2016   0.890   0.501   4.895
  353W        W 2017   2.548   1.136   5.468
  354W        W 2018   3.108   2.263   5.434
  355W        W 2019   0.571   2.394   6.083
  356W        W 2020   3.167   0.583   4.084
  357W        W 2021   1.451   1.159   6.365
  358W        W 2022   0.628   2.903   6.085
  359W        W 2023   3.122   2.525   4.964
  360W        W 2024   3.274   1.363   3.646
  361W        W 2025   2.230   1.220   5.896
  362W        W 2026   0.714   1.258   5.325
  363W        W 2027   7.114   2.764   5.959
  364W        W 2028   0.735   3.412   5.976
  365W        W 2029   3.157   1.550   4.108
  366W        W 2030   2.596   2.592   5.014
  367W        W 2031   0.864   1.423   6.615
  368W        W 2032   3.130   2.391   4.302
  369W        W 2033   2.915   0.605   3.648
  370W        W 2034   2.753   1.272   5.014
  371W        W 2035   3.890   0.042   5.513
  372W        W 2036   3.168   2.012   4.978
  373W        W 2037   2.257   3.234   5.831
  374W        W 2038   7.461   2.865   5.578
  375W        W 2039   1.413   0.777   4.128
  376W        W 2040   1.474   1.648   6.598
  377W        W 2041   2.359   2.225   5.960
  378W        W 2042   0.421   2.663   5.663
  379W        W 2043   2.726   0.777   4.310
  380W        W 2044   2.600   2.617   6.276
  381W        W 2045   1.129   3.057   5.974
  382W        W 2046   0.076   2.205   6.127
  383W        W 2047   1.411   2.779   5.639
  384W        W 2048   2.107   1.179   3.837
  385W        W 2049   3.483   2.264   4.657
  386W        W 2050   2.432   1.665   5.147
  387W        W 2051   1.537   0.973   5.885
  388W        W 2052   0.436   0.901   5.056
  389W        W 2053   2.663   1.630   6.200
  390W        W 2054   2.905   2.741   5.403
  391W        W 2055   1.907   2.934   5.587
  392W        W 2056   0.052   3.485   5.467
  393W        W 2057   0.742   1.045   6.962
  394W        W 2058   7.498   1.573   4.349
  395W        W 2059   1.085   1.244   3.753
  396W        W 2060   1.911   3.490   5.557
  397W        W 2061   2.731   2.996   5.884
  398W        W 2062   2.442   2.986   5.426
  399W        W 2063   2.235   2.179   5.030
  400W        W 2064   1.520   0.818   6.753
  401W        W 2065   2.784   2.126   6.208
  402W        W 2066   2.511   1.152   6.311
  403W        W 2067   1.778   2.669   6.016
  404W        W 2068   1.900   2.230   6.569
  405W        W 2069   0.707   2.696   5.248
  406W        W 2070   2.706   2.106   5.175
  407W        W 2071   1.793   1.268   6.758
  408W        W 2072   1.145   2.044   6.541
  409W        W 2073   0.459   4.921   1.743
  410W        W 2074   7.423   4.269   2.955
  411W        W 2075   2.356   3.909   1.838
  412W        W 2076   2.311   4.779   0.389
  413W        W 2077   0.006   3.944   2.554
  414W        W 2078   0.303   4.842   2.236
  415W        W 2079   0.940   5.448   3.128
  416W        W 2080   2.703   6.208   3.498
  417W        W 2081   0.546   4.017   1.255
  418W        W 2082   3.245   5.283   2.582
  419W        W 2083   0.216   7.095   0.825
  420W        W 2084   0.719   7.195   0.773
  421W        W 2085   3.182   4.955   0.388
  422W        W 2086   0.681   6.680   0.843
  423W        W 2087   7.402   4.088   1.684
  424W        W 2088   3.345   4.502   7.427
  425W        W 2089   1.028   3.935   2.539
  426W        W 2090   3.273   3.806   1.573
  427W        W 2091   0.599   5.263   7.051
  428W        W 2092   3.010   4.911   2.916
  429W        W 2093   0.178   4.696   2.728
  430W        W 2094   0.461   3.798   1.704
  431W        W 2095   2.048   3.813   2.249
  432W        W 2096   2.575   4.335   0.399
  433W        W 2097   3.109   6.960   3.416
  434W        W 2098   3.249   6.046   3.248
  435W        W 2099   0.884   6.956   1.234
  436W        W 2100   3.145   4.364   0.948
  437W        W 2101   1.240   3.736   0.785
  438W        W 2102   1.927   3.604   1.780
  439W        W 2103   2.346   7.182   1.287
  440W        W 2104   3.315   5.420   0.177
  441W        W 2105   2.779   4.742   0.669
  442W        W 2106   3.129   4.434   0.431
  443W        W 2107   2.920   6.525   0.810
  444W        W 2108   2.570   5.166   0.996
  445W        W 2109   0.257   4.318   2.272
  446W        W 2110   7.296   4.431   2.487
  447W        W 2111   0.519   4.599   0.256
  448W        W 2112   1.037   4.066   1.127
  449W        W 2113   0.999   4.845   0.290
  450W        W 2114   0.326   6.745   1.233
  451W        W 2115   2.663   6.409   0.332
  452W        W 2116   3.617   4.288   0.705
  453W        W 2117   7.243   6.897   0.707
  454W        W 2118   1.810   6.220   0.410
  455W        W 2119   2.381   4.509   7.444
  456W        W 2120   0.146   4.738   0.623
  457W        W 2121   0.587   5.489   3.503
  458W        W 2122   2.317   3.859   0.451
  459W        W 2123   2.733   3.722   2.139
  460W        W 2124   3.517   4.989   7.485
  461W        W 2125   7.495   4.528   0.166
  462W        W 2126   2.171   6.941   0.830
  463W        W 2127   0.180   5.324   7.353
  464W        W 2128   0.483   5.149   3.068
  465W        W 2129   4.042   4.918   0.233
  466W        W 2130   0.973   4.388   2.796
  467W        W 2131   0.417   4.230   2.756
  468W        W 2132   3.411   4.768   0.809
  469W        W 2133   2.163   6.598   0.434
  470W        W 2134   0.979   3.935   1.630
  471W        W 2135   2.812   7.382   1.199
  472W        W 2136   3.006   4.895   1.106
  473W        W 2137   1.412   7.082   1.229
  474W        W 2138   0.837   6.978   3.226
  475W        W 2139   1.042   4.888   3.036
  476W        W 2140   3.594   4.640   0.334
  477W        W 2141   1.212   5.341   0.331
  478W        W 2142   7.131   6.737   2.089
  479W        W 2143   0.090   5.325   3.380
  480W        W 2144   2.891   4.293   7.496
  481W        W 2145   2.013   0.277   2.801
  482W        W 2146   1.368   3.699   1.289
  483W        W 2147   1.540   4.119   0.981
  484W        W 2148   1.254   5.529   3.552
  485W        W 2149   0.737   6.942   2.707
  486W        W 2150   7.376   6.245   0.564
  487W        W 2151   2.715   6.708   3.664
  488W        W 2152   1.834   3.912   1.370
  489W        W 2153   1.269   6.580   1.198
  490W        W 2154   2.781   4.766   0.140
  491W        W 2155   1.175   6.893   0.797
  492W        W 2156   0.011   6.962   1.777
  493W        W 2157   0.588   4.635   3.041
  494W        W 2158   2.741   5.295   3.532
  495W        W 2159   2.282   3.624   1.407
  496W        W 2160   1.877   0.395   1.487
  497W        W 2161   2.072   4.259   0.250
  498W        W 2162   1.549   5.779   0.338
  499W        W 2163   2.596   5.910   0.145
  500W        W 2164   2.572   6.907   0.467
  501W        W 2165   1.758   6.740   1.058
  502W        W 2166   0.625   5.146   0.077
  503W        W 2167   1.182   5.187   4.902
  504W        W 2168   0.958   4.828   5.227
  505W        W 2169   0.013   4.654   6.567
  506W        W 2170   0.852   4.726   6.342
  507W        W 2171   0.934   5.239   6.348
  508W        W 2172   1.335   4.703   5.575
  509W        W 2173   1.712   5.767   5.176
  510W        W 2174   2.320   5.887   7.212
  511W        W 2175   0.135   5.002   6.940
  512W        W 2176   0.912   7.296   4.750
  513W        W 2177   2.739   5.221   4.678
  514W        W 2178   2.406   5.463   3.903
  515W        W 2179   1.929   6.411   5.789
  516W        W 2180   1.669   4.187   5.218
  517W        W 2181   3.613   3.850   5.339
  518W        W 2182   0.249   6.473   4.648
  519W        W 2183   2.650   5.656   4.392
  520W        W 2184   0.519   5.036   6.594
  521W        W 2185   2.313   3.735   5.792
  522W        W 2186   0.579   6.567   5.047
  523W        W 2187   3.151   6.456   3.543
  524W        W 2188   2.341   3.520   5.292
  525W        W 2189   0.388   5.898   6.418
  526W        W 2190   2.077   6.674   4.898
  527W        W 2191   2.334   6.779   6.646
  528W        W 2192   1.902   4.397   5.649
  529W        W 2193   2.228   5.869   5.276
  530W        W 2194   1.565   6.654   5.039
  531W        W 2195   7.427   4.784   6.046
  532W        W 2196   0.599   3.865   4.278
  533W        W 2197   1.047   5.532   4.482
  534W        W 2198   2.059   6.001   6.124
  535W        W 2199   1.485   6.518   5.548
  536W        W 2200   1.154   4.054   3.575
  537W        W 2201   1.596   5.130   5.796
  538W        W 2202   2.711   3.441   5.631
  539W        W 2203   1.906   5.094   4.602
  540W        W 2204   1.270   5.737   6.391
  541W        W 2205   2.702   6.026   6.877
  542W        W 2206   0.501   6.953   4.708
  543W        W 2207   2.287   6.373   7.002
  544W        W 2208   2.749   5.710   5.353
  545W        W 2209   3.049   5.405   5.689
  546W        W 2210   1.861   5.919   5.651
  547W        W 2211   2.115   3.987   5.403
  548W        W 2212   3.140   6.798   3.945
  549W        W 2213   1.461   4.746   5.073
  550W        W 2214   1.829   4.801   3.715
  551W        W 2215   6.943   3.709   3.772
  552W        W 2216   0.907   5.723   3.915
  553W        W 2217   1.882   4.479   7.304
  554W        W 2218   2.654   3.920   5.414
  555W        W 2219   0.829   5.727   6.126
  556W        W 2220   7.434   5.425   3.893
  557W        W 2221   0.873   6.088   6.493
  558W        W 2222   0.451   5.413   6.255
  559W        W 2223   2.897   6.319   3.946
  560W        W 2224   2.747   5.828   5.867
  561W        W 2225   0.678   4.343   6.030
  562W        W 2226   0.890   3.892   5.270
  563W        W 2227   1.420   5.811   4.016
  564W        W 2228   0.187   6.628   6.778
  565W        W 2229   1.172   4.333   5.235
  566W        W 2230   1.206   5.636   5.166
  567W        W 2231   2.255   5.619   5.785
  568W        W 2232   0.442   4.912   6.084
  569W        W 2233   0.750   5.265   5.857
  570W        W 2234   1.145   5.195   5.531
  571W        W 2235   0.570   5.335   4.641
  572W        W 2236   2.926   5.510   3.968
  573W        W 2237   0.238   5.475   6.736
  574W        W 2238   0.778   5.341   5.188
  575W        W 2239   0.119   6.820   5.036
  576W        W 2240   2.623   5.928   3.943
  577W        W 2241   2.693   6.303   7.314
  578W        W 2242   2.398   4.234   5.776
  579W        W 2243   2.343   6.120   5.709
  580W        W 2244   2.458   6.288   6.492
  581W        W 2245   1.571   5.236   5.254
  582W        W 2246   0.742   5.597   6.650
  583W        W 2247   0.787   5.764   4.871
  584W        W 2248   1.456   3.758   5.420
  585W        W 2249   0.327   5.581   5.008
  586W        W 2250   2.449   6.736   7.476
  587W        W 2251   2.926   6.773   7.272
  588W        W 2252   1.852   3.685   5.086
  589W        W 2253   0.996   6.764   4.769
  590W        W 2254   0.314   5.803   4.536
  591W        W 2255   0.346   3.866   5.210
  592W        W 2256   1.853   6.265   5.274
  593W        W 2257   1.947   6.761   5.389
  594W        W 2258   0.076   5.147   4.867
  595W        W 2259   0.963   5.672   5.615
  596W        W 2260   2.993   5.623   4.889
  597W        W 2261   1.229   5.327   4.033
  598W        W 2262   1.369   4.757   6.442
  599W        W 2263   1.162   4.947   5.995
  600W        W 2264   0.053   5.131   6.395
  601W        W 2265   1.711   5.606   6.047
  602W        W 2266   2.776   7.069   6.826
  603W        W 2267   2.010   6.483   6.307
  604W        W 2268   2.221   6.275   0.037
  605W        W 2269   4.164   3.764   3.481
  606W        W 2270   7.070   2.668   0.997
  607W        W 2271   6.720   3.264   2.553
  608W        W 2272   4.380   1.134   1.256
  609W        W 2273   5.408   3.322   3.212
  610W        W 2274   3.683   0.796   3.249
  611W        W 2275   3.576   0.940   2.770
  612W        W 2276   3.961   1.272   1.970
  613W        W 2277   6.927   2.237   2.412
  614W        W 2278   3.795   1.741   2.165
  615W        W 2279   7.350   1.776   2.993
  616W        W 2280   4.356   2.649   1.848
  617W        W 2281   5.522   2.823   3.101
  618W        W 2282   5.610   2.008   3.514
  619W        W 2283   3.327   1.172   3.159
  620W        W 2284   6.430   2.757   3.188
  621W        W 2285   4.779   2.849   2.137
  622W        W 2286   5.221   2.935   2.421
  623W        W 2287   6.944   1.477   2.868
  624W        W 2288   6.085   1.406   0.388
  625W        W 2289   6.055   3.220   2.541
  626W        W 2290   5.733   0.630   0.578
  627W        W 2291   3.908   2.872   1.792
  628W        W 2292   4.351   2.845   2.535
  629W        W 2293   4.968   0.376   2.327
  630W        W 2294   7.160   0.518   1.280
  631W        W 2295   4.012   0.862   7.349
  632W        W 2296   3.832   2.519   1.003
  633W        W 2297   6.383   3.304   2.931
  634W        W 2298   5.632   1.156   0.514
  635W        W 2299   6.516   1.701   3.161
  636W        W 2300   5.904   1.487   0.847
  637W        W 2301   4.193   0.256   1.842
  638W        W 2302   6.018   0.906   0.251
  639W        W 2303   6.832   3.008   2.973
  640W        W 2304   6.774   2.492   2.887
  641W        W 2305   4.748   1.233   0.460
  642W        W 2306   6.515   0.796   0.853
  643W        W 2307   4.936   3.498   3.142
  644W        W 2308   4.624   7.422   1.218
  645W        W 2309   6.880   0.948   1.170
  646W        W 2310   7.479   2.742   0.692
  647W        W 2311   4.162   2.189   1.976
  648W        W 2312   4.002   2.423   2.401
  649W        W 2313   7.124   1.311   2.395
  650W        W 2314   6.612   2.601   7.454
  651W        W 2315   0.023   1.236   3.029
  652W        W 2316   6.430   1.328   0.878
  653W        W 2317   6.753   3.045   1.149
  654W        W 2318   6.270   1.801   0.666
  655W        W 2319   6.874   1.992   2.941
  656W        W 2320   6.195   3.712   2.697
  657W        W 2321   6.202   0.848   2.659
  658W        W 2322   5.508   3.781   2.985
  659W        W 2323   6.601   1.774   2.572
  660W        W 2324   3.702   1.288   2.399
  661W        W 2325   7.195   1.463   3.372
  662W        W 2326   5.476   2.322   3.155
  663W        W 2327   5.716   2.812   2.477
  664W        W 2328   5.086   2.449   2.294
  665W        W 2329   6.564   3.014   2.132
  666W        W 2330   4.811   0.629   1.213
  667W        W 2331   4.182   0.377   7.477
  668W        W 2332   5.178   1.448   1.338
  669W        W 2333   6.071   1.969   3.254
  670W        W 2334   6.376   2.159   2.885
  671W        W 2335   4.810   1.006   1.987
  672W        W 2336   4.490   0.761   1.596
  673W        W 2337   5.054   2.602   3.140
  674W        W 2338   6.924   1.020   0.642
  675W        W 2339   4.515   2.435   2.281
  676W        W 2340   7.159   3.145   0.835
  677W        W 2341   5.614   1.643   0.365
  678W        W 2342   5.524   0.839   0.121
  679W        W 2343   5.983   2.479   3.205
  680W        W 2344   4.827   2.688   2.666
  681W        W 2345   5.088   0.190   1.364
  682W        W 2346   6.607   1.318   2.310
  683W        W 2347   4.549   0.561   2.059
  684W        W 2348   4.421   2.360   2.775
  685W        W 2349   7.152   1.806   2.531
  686W        W 2350   7.367   2.271   1.073
  687W        W 2351   0.177   1.161   3.525
  688W        W 2352   6.952   2.803   0.504
  689W        W 2353   6.483   2.026   2.141
  690W        W 2354   2.859   3.459   2.581
  691W        W 2355   4.343   1.072   2.249
  692W        W 2356   4.638   0.270   1.591
  693W        W 2357   4.593   3.156   2.920
  694W        W 2358   6.977   3.393   1.464
  695W        W 2359   4.991   0.618   1.708
  696W        W 2360   6.160   1.609   2.293
  697W        W 2361   7.362   3.490   1.142
  698W        W 2362   6.939   0.517   0.815
  699W        W 2363   4.866   1.074   1.479
  700W        W 2364   4.625   2.943   1.518
  701W        W 2365   7.246   3.003   1.344
  702W        W 2366   7.218   0.636   0.411
  703W        W 2367   4.168   1.505   2.477
  704W        W 2368   6.859   3.651   2.267
  705W        W 2369   6.346   0.342   3.606
  706W        W 2370   4.447   1.256   1.760
  707W        W 2371   4.801   1.372   7.440
  708W        W 2372   5.288   1.306   0.079
  709W        W 2373   6.723   1.224   3.260
  710W        W 2374   6.452   1.307   2.803
  711W        W 2375   4.097   1.527   1.529
  712W        W 2376   4.583   2.427   1.446
  713W        W 2377   7.255   2.619   2.203
  714W        W 2378   3.587   3.184   1.506
  715W        W 2379   4.340   2.457   1.004
  716W        W 2380   5.304   2.967   3.572
  717W        W 2381   6.464   2.277   3.380
  718W        W 2382   5.602   7.235   0.998
  719W        W 2383   6.071   2.090   2.462
  720W        W 2384   4.856   3.025   3.349
  721W        W 2385   6.053   0.990   0.765
  722W        W 2386   5.997   2.960   2.988
  723W        W 2387   3.842   1.948   1.671
  724W        W 2388   5.894   3.456   3.088
  725W        W 2389   7.276   2.265   2.789
  726W        W 2390   4.144   2.845   1.316
  727W        W 2391   5.153   0.171   1.891
  728W        W 2392   5.106   3.056   2.900
  729W        W 2393   4.045   2.050   1.116
  730W        W 2394   4.082   0.784   1.884
  731W        W 2395   6.460   1.075   0.426
  732W        W 2396   6.743   2.513   2.008
  733W        W 2397   5.433   2.708   2.003
  734W        W 2398   5.229   3.251   0.384
  735W        W 2399   6.407   2.868   2.681
  736W        W 2400   6.623   3.193   0.669
  737W        W 2401   6.845   2.756   2.464
  738W        W 2402   4.044   2.391   1.503
  739W        W 2403   4.262   1.685   1.978
  740W        W 2404   6.136   1.709   2.807
  741W        W 2405   5.578   3.219   2.748
  742W        W 2406   6.464   2.420   2.454
  743W        W 2407   6.374   3.499   2.250
  744W        W 2408   5.177   2.300   3.569
  745W        W 2409   6.872   2.272   4.280
  746W        W 2410   4.982   3.412   3.678
  747W        W 2411   4.941   1.414   4.899
  748W        W 2412   4.523   1.191   5.088
  749W        W 2413   3.808   0.661   6.917
  750W        W 2414   5.639   2.578   3.578
  751W        W 2415   4.657   0.919   6.754
  752W        W 2416   7.184   1.252   5.102
  753W        W 2417   6.933   2.263   6.020
  754W        W 2418   3.416   1.831   5.379
  755W        W 2419   5.325   1.811   6.716
  756W        W 2420   6.325   1.158   5.221
  757W        W 2421   6.907   2.918   4.335
  758W        W 2422   6.689   1.829   6.223
  759W        W 2423   6.613   1.985   4.662
  760W        W 2424   5.215   0.444   4.965
  761W        W 2425   5.247   3.516   4.127
  762W        W 2426   3.627   3.002   5.690
  763W        W 2427   6.893   7.038   5.615
  764W        W 2428   4.321   2.857   5.036
  765W        W 2429   6.752   3.188   5.291
  766W        W 2430   6.186   1.690   4.441
  767W        W 2431   4.531   0.946   7.269
  768W        W 2432   4.268   7.324   5.188
  769W        W 2433   5.490   1.049   7.148
  770W        W 2434   5.936   0.806   7.265
  771W        W 2435   6.766   2.704   6.783
  772W        W 2436   6.693   2.259   7.046
  773W        W 2437   4.372   3.293   5.319
  774W        W 2438   5.156   1.130   4.525
  775W        W 2439   4.744   0.400   6.754
  776W        W 2440   6.632   1.480   4.506
  777W        W 2441   7.262   3.101   5.180
  778W        W 2442   5.485   1.577   7.165
  779W        W 2443   5.678   6.979   5.582
  780W        W 2444   5.318   3.778   4.574
  781W        W 2445   6.630   1.957   5.199
  782W        W 2446   6.771   2.240   6.531
  783W        W 2447   6.715   1.147   4.880
  784W        W 2448   5.084   3.310   4.595
  785W        W 2449   3.777   1.148   3.656
  786W        W 2450   4.516   3.391   3.438
  787W        W 2451   4.790   1.554   4.422
  788W        W 2452   5.997   7.301   5.841
  789W        W 2453   5.707   2.129   6.539
  790W        W 2454   6.140   2.744   3.625
  791W        W 2455   7.102   1.285   4.554
  792W        W 2456   6.669   3.297   4.047
  793W        W 2457   5.879   1.905   4.053
  794W        W 2458   4.943   0.885   4.948
  795W        W 2459   6.638   1.000   4.351
  796W        W 2460   4.544   1.375   6.985
  797W        W 2461   5.046   0.891   7.369
  798W        W 2462   6.356   0.782   5.580
  799W        W 2463   6.491   1.275   5.717
  800W        W 2464   5.517   1.329   6.710
  801W        W 2465   3.351   0.861   3.652
  802W        W 2466   4.224   1.444   6.594
  803W        W 2467   7.179   1.964   6.359
  804W        W 2468   6.280   3.204   3.399
  805W        W 2469   6.739   1.455   5.316
  806W        W 2470   4.146   0.586   6.530
  807W        W 2471   6.279   1.705   5.931
  808W        W 2472   6.257   3.462   4.332
  809W        W 2473   6.282   2.177   4.297
  810W        W 2474   7.415   1.650   4.855
  811W        W 2475   5.460   0.532   7.210
  812W        W 2476   5.794   3.080   3.449
  813W        W 2477   6.265   1.657   5.416
  814W        W 2478   5.356   1.965   3.955
  815W        W 2479   6.933   2.234   5.496
  816W        W 2480   6.715   3.380   4.582
  817W        W 2481   6.916   1.636   4.890
  818W        W 2482   4.942   1.152   5.383
  819W        W 2483   4.741   3.180   4.984
  820W        W 2484   5.860   1.732   6.823
  821W        W 2485   6.015   1.360   6.497
  822W        W 2486   3.937   1.439   7.043
  823W        W 2487   5.975   0.496   4.308
  824W        W 2488   6.617   2.933   3.672
  825W        W 2489   6.429   0.583   4.060
  826W        W 2490   6.750   1.787   5.703
  827W        W 2491   6.416   1.579   4.936
  828W        W 2492   4.945   0.597   5.408
  829W        W 2493   6.800   0.954   5.361
  830W        W 2494   3.949   0.182   7.046
  831W        W 2495   7.080   2.107   4.973
  832W        W 2496   6.497   2.420   3.885
  833W        W 2497   5.941   1.447   5.031
  834W        W 2498   6.228   1.196   4.660
  835W        W 2499   4.713   1.656   5.293
  836W        W 2500   4.128   3.311   6.000
  837W        W 2501   6.741   3.422   3.302
  838W        W 2502   5.135   0.758   6.866
  839W        W 2503   7.220   2.495   6.387
  840W        W 2504   5.438   7.190   5.167
  841W        W 2505   4.812   0.979   5.866
  842W        W 2506   3.879   1.974   4.460
  843W        W 2507   6.136   1.868   6.392
  844W        W 2508   6.134   0.982   4.201
  845W        W 2509   6.104   0.071   4.001
  846W        W 2510   3.946   3.450   5.538
  847W        W 2511   5.784   1.289   7.498
  848W        W 2512   4.316   0.557   7.008
  849W        W 2513   4.634   1.090   4.589
  850W        W 2514   5.283   3.685   5.402
  851W        W 2515   6.273   2.816   6.052
  852W        W 2516   6.121   1.983   4.890
  853W        W 2517   7.107   6.912   5.094
  854W        W 2518   6.034   2.248   3.691
  855W        W 2519   6.176   3.190   3.897
  856W        W 2520   6.717   2.679   6.266
  857W        W 2521   5.639   1.671   6.325
  858W        W 2522   3.968   2.271   4.872
  859W        W 2523   6.415   2.259   6.153
  860W        W 2524   5.943   1.260   7.013
  861W        W 2525   4.865   3.369   5.454
  862W        W 2526   6.605   2.547   5.767
  863W        W 2527   5.628   2.473   7.411
  864W        W 2528   6.699   3.049   5.859
  865W        W 2529   5.055   1.259   6.997
  866W        W 2530   5.800   3.562   4.075
  867W        W 2531   5.681   3.040   3.945
  868W        W 2532   3.727   5.909   3.114
  869W        W 2533   6.665   6.500   2.812
  870W        W 2534   4.236   4.758   1.090
  871W        W 2535   5.638   5.992   1.352
  872W        W 2536   5.072   6.567   3.482
  873W        W 2537   6.542   3.913   1.937
  874W        W 2538   5.626   4.572   0.119
  875W        W 2539   5.514   6.400   1.075
  876W        W 2540   4.777   5.029   3.436
  877W        W 2541   5.791   5.613   1.657
  878W        W 2542   3.421   4.852   1.403
  879W        W 2543   4.693   5.509   2.925
  880W        W 2544   5.414   5.951   1.806
  881W        W 2545   5.365   5.645   3.405
  882W        W 2546   4.271   6.055   2.331
  883W        W 2547   4.201   4.382   2.314
  884W        W 2548   7.142   4.735   2.879
  885W        W 2549   4.174   7.108   1.241
  886W        W 2550   6.860   4.212   1.628
  887W        W 2551   4.297   6.206   2.832
  888W        W 2552   7.017   3.758   1.797
  889W        W 2553   4.256   6.739   1.587
  890W        W 2554   5.325   4.255   0.411
  891W        W 2555   6.608   4.726   3.064
  892W        W 2556   5.976   5.783   2.601
  893W        W 2557   5.102   5.817   2.989
  894W        W 2558   4.323   4.732   2.695
  895W        W 2559   4.323   4.871   3.226
  896W        W 2560   6.080   3.911   2.195
  897W        W 2561   5.565   4.290   3.137
  898W        W 2562   6.473   4.131   2.942
  899W        W 2563   4.884   4.512   0.539
  900W        W 2564   6.684   4.139   1.094
  901W        W 2565   6.808   4.612   0.871
  902W        W 2566   3.936   4.862   1.508
  903W        W 2567   7.269   6.247   1.977
  904W        W 2568   7.181   3.533   2.649
  905W        W 2569   6.955   6.386   0.846
  906W        W 2570   7.147   3.820   3.100
  907W        W 2571   5.409   5.877   2.506
  908W        W 2572   6.846   6.807   1.114
  909W        W 2573   6.628   5.270   3.140
  910W        W 2574   7.051   6.782   1.583
  911W        W 2575   6.984   5.219   2.720
  912W        W 2576   3.779   5.286   2.662
  913W        W 2577   6.353   4.197   1.489
  914W        W 2578   6.929   4.310   3.087
  915W        W 2579   5.116   7.186   1.201
  916W        W 2580   4.049   4.413   0.318
  917W        W 2581   4.461   7.156   6.922
  918W        W 2582   4.926   4.027   0.699
  919W        W 2583   6.634   3.762   1.451
  920W        W 2584   6.940   6.345   2.374
  921W        W 2585   4.205   6.459   2.002
  922W        W 2586   6.542   4.000   2.448
  923W        W 2587   6.175   5.551   3.025
  924W        W 2588   5.084   4.130   1.873
  925W        W 2589   6.231   5.724   1.926
  926W        W 2590   5.600   6.273   2.156
  927W        W 2591   3.288   6.547   3.051
  928W        W 2592   3.841   6.005   2.611
  929W        W 2593   6.104   4.235   2.599
  930W        W 2594   5.002   6.373   0.961
  931W        W 2595   4.618   4.393   0.974
  932W        W 2596   5.310   4.293   7.178
  933W        W 2597   3.959   6.623   1.183
  934W        W 2598   4.393   5.374   3.316
  935W        W 2599   3.741   4.541   1.154
  936W        W 2600   4.118   4.295   0.893
  937W        W 2601   7.013   4.032   2.653
  938W        W 2602   4.530   4.191   1.940
  939W        W 2603   5.720   4.802   3.209
  940W        W 2604   4.164   5.713   2.922
  941W        W 2605   5.766   5.788   2.138
  942W        W 2606   3.838   5.377   0.085
  943W        W 2607   4.530   5.904   3.218
  944W        W 2608   6.702   3.687   2.855
  945W        W 2609   7.474   5.157   2.893
  946W        W 2610   7.158   4.138   3.525
  947W        W 2611   7.330   4.938   2.435
  948W        W 2612   5.442   6.934   3.668
  949W        W 2613   6.598   6.414   0.443
  950W        W 2614   4.817   6.280   3.019
  951W        W 2615   4.688   6.420   1.400
  952W        W 2616   5.543   6.418   1.607
  953W        W 2617   6.805   6.403   1.851
  954W        W 2618   5.944   6.490   0.776
  955W        W 2619   3.629   6.329   3.442
  956W        W 2620   5.320   5.931   0.956
  957W        W 2621   4.112   6.232   3.303
  958W        W 2622   6.938   7.319   0.794
  959W        W 2623   4.204   5.250   1.238
  960W        W 2624   6.256   7.317   3.555
  961W        W 2625   6.998   6.314   1.385
  962W        W 2626   5.153   5.252   3.134
  963W        W 2627   6.153   6.496   2.723
  964W        W 2628   4.886   7.305   1.656
  965W        W 2629   7.018   5.823   1.212
  966W        W 2630   4.263   5.219   2.842
  967W        W 2631   5.149   6.150   1.402
  968W        W 2632   6.163   5.031   3.019
  969W        W 2633   6.626   6.862   1.938
  970W        W 2634   4.530   4.537   0.117
  971W        W 2635   3.775   6.398   2.935
  972W        W 2636   4.857   4.131   0.187
  973W        W 2637   6.714   3.938   3.363
  974W        W 2638   3.888   5.365   3.189
  975W        W 2639   6.844   3.549   1.001
  976W        W 2640   5.318   4.783   0.487
  977W        W 2641   6.743   4.467   2.625
  978W        W 2642   6.346   4.583   1.099
  979W        W 2643   5.613   4.016   1.954
  980W        W 2644   7.062   5.862   2.256
  981W        W 2645   7.165   4.064   2.163
  982W        W 2646   4.490   3.742   3.056
  983W        W 2647   4.852   5.558   3.424
  984W        W 2648   6.091   6.168   2.261
  985W        W 2649   4.576   6.355   3.476
  986W        W 2650   5.294   5.628   1.406
  987W        W 2651   4.088   5.756   3.463
  988W        W 2652   6.297   6.444   1.881
  989W        W 2653   4.155   5.161   0.709
  990W        W 2654   5.442   4.211   1.487
  991W        W 2655   3.655   5.130   0.512
  992W        W 2656   5.096   4.579   0.063
  993W        W 2657   3.761   5.060   1.050
  994W        W 2658   5.218   4.735   3.346
  995W        W 2659   7.163   5.518   3.117
  996W        W 2660   4.652   0.052   2.046
  997W        W 2661   4.679   6.934   1.360
  998W        W 2662   5.995   6.367   1.297
  999W        W 2663   6.582   6.047   2.134
 1000W        W 2664   5.155   6.677   1.356
 1001W        W 2665   3.911   4.718   0.704
 1002W        W 2666   4.406   4.714   0.591
 1003W        W 2667   5.622   4.071   0.006
 1004W        W 2668   7.109   3.893   1.304
 1005W        W 2669   4.798   4.950   0.300
 1006W        W 2670   5.861   5.992   0.904
 1007W        W 2671   4.732   4.992   2.927
 1008W        W 2672   6.432   6.067   2.633
 1009W        W 2673   3.886   4.883   2.977
 1010W        W 2674   5.695   5.349   3.105
 1011W        W 2675   6.127   4.509   3.041
 1012W        W 2676   4.376   7.270   1.684
 1013W        W 2677   3.795   6.167   2.107
 1014W        W 2678   6.477   6.055   1.628
 1015W        W 2679   6.474   6.535   2.332
 1016W        W 2680   4.021   6.491   2.482
 1017W        W 2681   5.665   6.827   1.320
 1018W        W 2682   5.001   6.041   3.441
 1019W        W 2683   6.890   6.802   6.088
 1020W        W 2684   4.847   6.802   3.886
 1021W        W 2685   3.691   4.781   6.251
 1022W        W 2686   4.797   5.631   6.276
 1023W        W 2687   7.237   5.281   6.767
 1024W        W 2688   4.650   6.355   5.335
 1025W        W 2689   5.789   6.178   6.484
 1026W        W 2690   5.236   5.440   6.483
 1027W        W 2691   3.860   4.609   7.340
 1028W        W 2692   6.330   6.182   6.481
 1029W        W 2693   4.770   6.394   5.890
 1030W        W 2694   4.149   6.930   4.006
 1031W        W 2695   4.245   3.940   6.114
 1032W        W 2696   7.169   5.274   6.057
 1033W        W 2697   5.993   6.288   6.020
 1034W        W 2698   4.344   6.737   4.441
 1035W        W 2699   3.959   6.682   5.331
 1036W        W 2700   3.889   4.750   6.742
 1037W        W 2701   4.226   3.906   5.465
 1038W        W 2702   6.824   6.438   6.455
 1039W        W 2703   7.317   5.786   6.793
 1040W        W 2704   4.451   6.843   5.247
 1041W        W 2705   6.772   6.451   3.917
 1042W        W 2706   7.192   3.742   5.765
 1043W        W 2707   5.436   4.995   6.675
 1044W        W 2708   5.335   5.501   5.153
 1045W        W 2709   6.821   4.476   6.663
 1046W        W 2710   5.257   5.655   6.012
 1047W        W 2711   5.769   5.727   5.324
 1048W        W 2712   6.976   5.591   6.426
 1049W        W 2713   6.437   6.975   5.861
 1050W        W 2714   5.954   6.815   5.984
 1051W        W 2715   5.204   6.707   5.897
 1052W        W 2716   7.138   5.807   5.961
 1053W        W 2717   5.537   6.197   5.283
 1054W        W 2718   4.438   6.841   3.578
 1055W        W 2719   6.168   7.034   5.417
 1056W        W 2720   5.629   6.472   5.706
 1057W        W 2721   4.855   5.902   5.843
 1058W        W 2722   6.695   6.540   5.673
 1059W        W 2723   6.716   3.555   5.662
 1060W        W 2724   4.759   3.853   3.493
 1061W        W 2725   5.995   3.807   6.620
 1062W        W 2726   5.264   6.199   5.991
 1063W        W 2727   6.800   5.990   6.715
 1064W        W 2728   4.095   6.935   4.870
 1065W        W 2729   4.627   6.038   4.230
 1066W        W 2730   6.311   5.739   5.461
 1067W        W 2731   3.825   6.920   4.418
 1068W        W 2732   4.882   6.276   3.867
 1069W        W 2733   4.539   5.887   3.729
 1070W        W 2734   3.844   3.871   5.802
 1071W        W 2735   7.074   3.586   5.274
 1072W        W 2736   6.735   3.851   6.089
 1073W        W 2737   4.472   3.576   5.744
 1074W        W 2738   5.393   4.660   6.274
 1075W        W 2739   5.573   6.930   4.172
 1076W        W 2740   3.597   5.847   3.621
 1077W        W 2741   7.472   5.628   6.311
 1078W        W 2742   7.149   4.786   6.936
 1079W        W 2743   6.546   6.110   4.257
 1080W        W 2744   7.077   4.913   6.431
 1081W        W 2745   4.983   5.215   6.870
 1082W        W 2746   4.813   6.526   4.318
 1083W        W 2747   6.448   6.277   5.270
 1084W        W 2748   4.494   3.717   5.067
 1085W        W 2749   5.029   5.762   3.880
 1086W        W 2750   4.460   6.468   6.537
 1087W        W 2751   4.757   5.826   5.344
 1088W        W 2752   5.666   5.933   5.814
 1089W        W 2753   6.731   6.725   4.770
 1090W        W 2754   6.922   6.396   5.108
 1091W        W 2755   4.994   4.976   6.408
 1092W        W 2756   4.824   7.201   5.227
 1093W        W 2757   4.414   6.470   3.969
 1094W        W 2758   6.881   6.253   4.621
 1095W        W 2759   4.184   4.906   6.367
 1096W        W 2760   5.163   6.130   4.268
 1097W        W 2761   6.447   4.090   6.623
 1098W        W 2762   6.386   6.307   4.735
 1099W        W 2763   3.863   5.108   7.119
 1100W        W 2764   5.520   7.093   6.054
 1101W        W 2765   4.948   5.788   6.743
 1102W        W 2766   6.059   6.619   6.434
 1103W        W 2767   5.997   6.149   5.490
 1104W        W 2768   6.453   3.601   3.695
 1105W        W 2769   5.531   5.411   5.649
 1106W        W 2770   4.799   3.883   5.427
 1107W        W 2771   3.708   3.883   4.767
 1108W        W 2772   6.868   6.074   5.513
 1109W        W 2773   5.334   6.717   5.323
 1110W        W 2774   4.127   7.088   5.629
 1111W        W 2775   3.931   4.264   6.874
 1112W        W 2776   5.176   7.158   5.632
 1113W        W 2777   6.445   6.522   6.111
 1114W        W 2778   5.854   6.613   5.256
 1115W        W 2779   6.140   5.938   5.015
 1116W        W 2780   7.204   6.077   6.392
 1117W        W 2781   4.799   4.357   7.209
 1118W        W 2782   7.030   6.316   5.971
 1119W        W 2783   5.380   5.152   6.084
 1120W        W 2784   6.712   5.989   6.196
 1121W        W 2785   5.580   6.566   6.212
 1122W        W 2786   6.426   6.121   5.786
 1123W        W 2787   5.331   5.946   6.431
 1124W        W 2788   4.397   6.059   5.666
 1125W        W 2789   6.201   6.574   5.629
 1126W        W 2790   4.342   6.607   5.692
 1127W        W 2791   5.064   4.677   6.880
 1128W        W 2792   4.861   6.300   6.806
   7.50000   7.50000   7.50000
