DSPC BILAYER SELF-ASSEMBLY
 2792
    1DSPC   NC3    1   6.806   1.100   1.969
    1DSPC   PO4    2   7.197   0.844   1.849
    1DSPC   GL1    3   6.996   0.727   2.214
    1DSPC   GL2    4   6.739   0.570   2.023
    1DSPC   C1A    5   6.976   0.809   2.673
    1DSPC   C2A    6   7.004   1.185   2.959
    1DSPC   C3A    7   6.801   1.585   2.868
    1DSPC   C4A    8   6.344   1.604   2.838
    1DSPC   C5A    9   5.941   1.702   3.020
    1DSPC   C1B   10   6.566   0.815   2.361
    1DSPC   C2B   11   6.158   0.912   2.482
    1DSPC   C3B   12   5.816   0.846   2.794
    1DSPC   C4B   13   5.594   0.541   3.062
    1DSPC   C5B   14   5.209   0.266   2.986
    2DSPC   NC3   15   3.261   3.554   4.768
    2DSPC   PO4   16   3.418   3.924   5.016
    2DSPC   GL1   17   3.262   4.337   5.110
    2DSPC   GL2   18   3.187   4.478   4.787
    2DSPC   C1A   19   3.354   4.692   5.383
    2DSPC   C2A   20   3.402   5.151   5.502
    2DSPC   C3A   21   3.671   5.579   5.431
    2DSPC   C4A   22   3.781   5.953   5.145
    2DSPC   C5A   23   3.817   6.035   4.678
    2DSPC   C1B   24   2.864   4.826   4.676
    2DSPC   C2B   25   2.906   5.304   4.714
    2DSPC   C3B   26   3.050   5.746   4.542
    2DSPC   C4B   27   3.115   5.987   4.143
    2DSPC   C5B   28   2.912   6.339   3.902
    3DSPC   NC3   29   6.935   2.416   2.690
    3DSPC   PO4   30   6.552   2.211   2.864
    3DSPC   GL1   31   6.520   1.857   2.497
    3DSPC   GL2   32   6.522   1.837   2.103
    3DSPC   C1A   33   6.359   1.415   2.354
    3DSPC   C2A   34   5.950   1.305   2.158
    3DSPC   C3A   35   5.879   1.224   1.715
    3DSPC   C4A   36   5.656   1.516   1.406
    3DSPC   C5A   37   5.461   1.891   1.214
    3DSPC   C1B   38   6.746   1.860   1.671
    3DSPC   C2B   39   6.547   2.045   1.251
    3DSPC   C3B   40   6.313   1.975   0.827
    3DSPC   C4B   41   5.894   2.077   0.603
    3DSPC   C5B   42   5.829   2.349   0.255
    4DSPC   NC3   43   6.312   1.855   5.178
    4DSPC   PO4   44   6.139   1.441   4.998
    4DSPC   GL1   45   6.387   1.148   4.759
    4DSPC   GL2   46   6.127   0.986   4.571
    4DSPC   C1A   47   6.626   0.785   4.583
    4DSPC   C2A   48   6.710   0.354   4.603
    4DSPC   C3A   49   6.497   0.061   4.882
    4DSPC   C4A   50   6.069   7.394   4.990
    4DSPC   C5A   51   5.603   7.304   4.953
    4DSPC   C1B   52   5.633   0.922   4.642
    4DSPC   C2B   53   5.190   0.692   4.630
    4DSPC   C3B   54   4.828   0.340   4.611
    4DSPC   C4B   55   4.466   0.002   4.550
    4DSPC   C5B   56   4.074   7.252   4.433
    5DSPC   NC3   57   7.477   3.683   4.656
    5DSPC   PO4   58   0.149   4.063   4.970
    5DSPC   GL1   59   0.379   4.341   5.254
    5DSPC   GL2   60   0.522   4.649   5.111
    5DSPC   C1A   61   0.822   4.350   5.441
    5DSPC   C2A   62   1.256   4.451   5.321
    5DSPC   C3A   63   1.717   4.544   5.291
    5DSPC   C4A   64   2.038   4.826   5.207
    5DSPC   C5A   65   1.908   5.195   4.989
    5DSPC   C1B   66   0.679   5.120   5.188
    5DSPC   C2B   67   1.052   5.428   5.250
    5DSPC   C3B   68   1.196   5.839   5.439
    5DSPC   C4B   69   1.323   6.320   5.471
    5DSPC   C5B   70   1.578   6.710   5.369
    6DSPC   NC3   71   0.139   1.423   5.885
    6DSPC   PO4   72   0.061   1.876   5.968
    6DSPC   GL1   73   7.306   1.621   6.195
    6DSPC   GL2   74   0.015   1.407   6.403
    6DSPC   C1A   75   6.984   1.454   6.473
    6DSPC   C2A   76   6.736   1.080   6.601
    6DSPC   C3A   77   6.855   0.637   6.563
    6DSPC   C4A   78   7.222   0.374   6.481
    6DSPC   C5A   79   7.326   7.492   6.643
    6DSPC   C1B   80   0.214   1.047   6.632
    6DSPC   C2B   81   0.204   0.591   6.605
    6DSPC   C3B   82   0.303   0.139   6.602
    6DSPC   C4B   83   0.284   7.166   6.555
    6DSPC   C5B   84   0.141   6.704   6.506
    7DSPC   NC3   85   2.790   6.233   1.627
    7DSPC   PO4   86   2.474   6.279   1.261
    7DSPC   GL1   87   2.375   6.463   0.830
    7DSPC   GL2   88   2.584   6.439   0.507
    7DSPC   C1A   89   2.186   6.770   0.536
    7DSPC   C2A   90   1.972   7.186   0.550
    7DSPC   C3A   91   2.051   0.145   0.472
    7DSPC   C4A   92   2.414   0.386   0.314
    7DSPC   C5A   93   2.803   0.257   0.068
    7DSPC   C1B   94   2.639   6.869   0.297
    7DSPC   C2B   95   2.874   7.226   0.081
    7DSPC   C3B   96   3.214   7.375   7.280
    7DSPC   C4B   97   3.341   7.295   6.804
    7DSPC   C5B   98   3.411   6.909   6.517
    8DSPC   NC3   99   7.060   4.875   3.096
    8DSPC   PO4  100   7.020   4.502   2.837
    8DSPC   GL1  101   7.217   4.119   2.720
    8DSPC   GL2  102   7.053   3.782   2.639
    8DSPC   C1A  103   0.151   4.093   2.691
    8DSPC   C2A  104   0.425   3.860   2.950
    8DSPC   C3A  105   0.257   3.744   3.361
    8DSPC   C4A  106   0.336   3.535   3.741
    8DSPC   C5A  107   0.268   3.092   3.808
    8DSPC   C1B  108   6.820   3.357   2.615
    8DSPC   C2B  109   6.893   2.949   2.791
    8DSPC   C3B  110   7.050   2.735   3.133
    8DSPC   C4B  111   7.046   2.442   3.483
    8DSPC   C5B  112   7.003   1.999   3.576
    9DSPC   NC3  113   4.790   3.447   0.152
    9DSPC   PO4  114   5.077   3.410   7.344
    9DSPC   GL1  115   4.841   3.254   7.023
    9DSPC   GL2  116   4.625   3.035   7.169
    9DSPC   C1A  117   5.047   2.902   6.876
    9DSPC   C2A  118   5.300   2.647   7.154
    9DSPC   C3A  119   5.370   2.453   0.061
    9DSPC   C4A  120   5.454   2.001   0.177
    9DSPC   C5A  121   5.224   1.621   0.298
    9DSPC   C1B  122   4.792   2.623   7.259
    9DSPC   C2B  123   5.003   2.202   7.340
    9DSPC   C3B  124   5.180   1.780   7.293
    9DSPC   C4B  125   5.038   1.367   7.396
    9DSPC   C5B  126   4.680   1.139   7.257
   10DSPC   NC3  127   1.799   4.329   5.952
   10DSPC   PO4  128   1.738   4.411   6.449
   10DSPC   GL1  129   1.343   4.632   6.589
   10DSPC   GL2  130   1.061   4.401   6.578
   10DSPC   C1A  131   0.957   4.832   6.350
   10DSPC   C2A  132   0.539   4.980   6.484
   10DSPC   C3A  133   0.086   4.987   6.385
   10DSPC   C4A  134   7.149   4.878   6.300
   10DSPC   C5A  135   6.705   4.779   6.405
   10DSPC   C1B  136   0.578   4.465   6.432
   10DSPC   C2B  137   0.073   4.464   6.373
   10DSPC   C3B  138   7.069   4.381   6.395
   10DSPC   C4B  139   6.583   4.271   6.332
   10DSPC   C5B  140   6.141   4.132   6.471
   11DSPC   NC3  141   6.125   0.431   2.804
   11DSPC   PO4  142   6.396   0.192   2.497
   11DSPC   GL1  143   5.953   0.184   2.412
   11DSPC   GL2  144   5.893   0.502   2.345
   11DSPC   C1A  145   5.495   0.115   2.262
   11DSPC   C2A  146   5.194   7.286   2.178
   11DSPC   C3A  147   4.759   7.257   2.272
   11DSPC   C4A  148   4.526   0.116   2.387
   11DSPC   C5A  149   4.518   0.560   2.557
   11DSPC   C1B  150   5.668   0.893   2.308
   11DSPC   C2B  151   5.220   0.990   2.382
   11DSPC   C3B  152   4.761   0.960   2.330
   11DSPC   C4B  153   4.358   1.203   2.327
   11DSPC   C5B  154   4.181   1.466   2.658
   12DSPC   NC3  155   2.866   2.926   1.444
   12DSPC   PO4  156   3.238   2.716   1.273
   12DSPC   GL1  157   2.984   3.010   0.994
   12DSPC   GL2  158   3.107   3.324   0.893
   12DSPC   C1A  159   2.777   3.106   0.571
   12DSPC   C2A  160   2.803   3.128   0.115
   12DSPC   C3A  161   2.718   3.389   7.230
   12DSPC   C4A  162   2.757   3.732   6.948
   12DSPC   C5A  163   2.768   4.203   6.983
   12DSPC   C1B  164   3.048   3.641   0.553
   12DSPC   C2B  165   3.281   4.061   0.538
   12DSPC   C3B  166   3.385   4.464   0.306
   12DSPC   C4B  167   3.647   4.828   0.186
   12DSPC   C5B  168   3.976   5.094   0.360
   13DSPC   NC3  169   2.099   5.071   6.577
   13DSPC   PO4  170   2.199   5.442   6.827
   13DSPC   GL1  171   2.174   5.677   7.188
   13DSPC   GL2  172   2.042   5.492   7.436
   13DSPC   C1A  173   1.886   6.016   7.334
   13DSPC   C2A  174   1.535   6.329   7.236
   13DSPC   C3A  175   1.135   6.597   7.191
   13DSPC   C4A  176   0.791   6.916   7.269
   13DSPC   C5A  177   0.595   7.097   0.141
   13DSPC   C1B  178   2.166   5.851   0.239
   13DSPC   C2B  179   2.083   6.246   0.527
   13DSPC   C3B  180   1.841   6.525   0.855
   13DSPC   C4B  181   1.415   6.604   1.107
   13DSPC   C5B  182   1.099   6.788   1.432
   14DSPC   NC3  183   7.179   7.029   5.853
   14DSPC   PO4  184   6.899   7.308   5.569
   14DSPC   GL1  185   6.758   0.149   5.271
   14DSPC   GL2  186   6.999   0.204   5.004
   14DSPC   C1A  187   6.647   0.569   5.071
   14DSPC   C2A  188   6.772   1.017   5.018
   14DSPC   C3A  189   6.783   1.428   4.812
   14DSPC   C4A  190   6.871   1.681   4.439
   14DSPC   C5A  191   7.079   1.733   4.028
   14DSPC   C1B  192   7.116   0.626   4.820
   14DSPC   C2B  193   7.500   0.850   4.605
   14DSPC   C3B  194   0.327   0.934   4.249
   14DSPC   C4B  195   0.261   0.997   3.779
   14DSPC   C5B  196   0.471   1.126   3.380
   15DSPC   NC3  197   1.037   7.066   6.160
   15DSPC   PO4  198   1.119   6.864   6.565
   15DSPC   GL1  199   0.733   7.029   6.717
   15DSPC   GL2  200   0.478   6.822   6.875
   15DSPC   C1A  201   0.535   7.332   6.982
   15DSPC   C2A  202   0.110   7.413   7.043
   15DSPC   C3A  203   7.167   7.334   7.138
   15DSPC   C4A  204   6.830   7.046   7.120
   15DSPC   C5A  205   6.767   6.622   7.207
   15DSPC   C1B  206   0.259   6.964   7.261
   15DSPC   C2B  207   0.012   6.772   0.097
   15DSPC   C3B  208   7.154   6.449   0.021
   15DSPC   C4B  209   6.806   6.159   7.425
   15DSPC   C5B  210   6.468   5.874   7.260
   16DSPC   NC3  211   3.476   5.892   1.615
   16DSPC   PO4  212   3.044   5.837   1.832
   16DSPC   GL1  213   2.624   5.640   1.780
   16DSPC   GL2  214   2.394   5.899   1.683
   16DSPC   C1A  215   2.196   5.418   1.690
   16DSPC   C2A  216   2.004   5.004   1.868
   16DSPC   C3A  217   2.069   4.868   2.316
   16DSPC   C4A  218   2.134   4.845   2.772
   16DSPC   C5A  219   2.039   5.163   3.106
   16DSPC   C1B  220   2.333   5.750   2.134
   16DSPC   C2B  221   2.137   5.847   2.559
   16DSPC   C3B  222   2.090   6.219   2.885
   16DSPC   C4B  223   2.165   6.610   3.195
   16DSPC   C5B  224   2.138   6.862   3.622
   17DSPC   NC3  225   0.459   4.092   3.694
   17DSPC   PO4  226   0.860   3.935   3.510
   17DSPC   GL1  227   0.677   3.577   3.246
   17DSPC   GL2  228   0.491   3.262   3.341
   17DSPC   C1A  229   0.714   3.283   2.886
   17DSPC   C2A  230   1.022   2.952   2.777
   17DSPC   C3A  231   1.266   2.612   2.979
   17DSPC   C4A  232   1.171   2.336   3.337
   17DSPC   C5A  233   0.869   2.259   3.689
   17DSPC   C1B  234   0.337   2.925   3.034
   17DSPC   C2B  235   0.310   2.442   2.999
   17DSPC   C3B  236   0.247   1.991   3.109
   17DSPC   C4B  237   0.204   1.560   3.254
   17DSPC   C5B  238   7.422   1.240   3.443
   18DSPC   NC3  239   5.995   2.183   2.793
   18DSPC   PO4  240   5.494   2.134   2.758
   18DSPC   GL1  241   5.017   2.020   2.878
   18DSPC   GL2  242   4.997   1.680   3.021
   18DSPC   C1A  243   4.560   1.803   2.829
   18DSPC   C2A  244   4.490   1.458   3.073
   18DSPC   C3A  245   4.461   1.197   3.423
   18DSPC   C4A  246   4.829   0.951   3.519
   18DSPC   C5A  247   5.143   0.705   3.261
   18DSPC   C1B  248   4.890   1.483   3.414
   18DSPC   C2B  249   4.754   1.376   3.837
   18DSPC   C3B  250   4.885   1.382   4.284
   18DSPC   C4B  251   5.190   1.238   4.614
   18DSPC   C5B  252   5.278   1.035   5.017
   19DSPC   NC3  253   4.285   2.540   2.911
   19DSPC   PO4  254   4.237   2.310   3.324
   19DSPC   GL1  255   4.488   2.184   3.677
   19DSPC   GL2  256   4.255   2.043   3.880
   19DSPC   C1A  257   4.723   2.239   4.095
   19DSPC   C2A  258   5.047   2.273   4.445
   19DSPC   C3A  259   5.066   2.437   4.882
   19DSPC   C4A  260   4.725   2.386   5.200
   19DSPC   C5A  261   4.300   2.163   5.168
   19DSPC   C1B  262   4.263   2.132   4.317
   19DSPC   C2B  263   4.232   1.956   4.704
   19DSPC   C3B  264   3.871   1.862   4.896
   19DSPC   C4B  265   3.504   1.608   4.946
   19DSPC   C5B  266   3.062   1.738   5.003
   20DSPC   NC3  267   1.880   4.372   1.304
   20DSPC   PO4  268   1.467   4.201   1.485
   20DSPC   GL1  269   1.043   4.103   1.689
   20DSPC   GL2  270   0.769   3.966   1.499
   20DSPC   C1A  271   0.768   3.923   2.034
   20DSPC   C2A  272   0.606   4.015   2.465
   20DSPC   C3A  273   0.570   4.397   2.727
   20DSPC   C4A  274   0.660   4.823   2.574
   20DSPC   C5A  275   0.835   5.249   2.699
   20DSPC   C1B  276   0.592   4.325   1.775
   20DSPC   C2B  277   0.424   4.461   2.229
   20DSPC   C3B  278   0.147   4.691   2.567
   20DSPC   C4B  279   7.315   5.054   2.651
   20DSPC   C5B  280   7.058   5.355   2.883
   21DSPC   NC3  281   2.069   4.722   6.183
   21DSPC   PO4  282   2.020   5.173   6.072
   21DSPC   GL1  283   1.747   5.266   5.731
   21DSPC   GL2  284   1.648   5.068   5.428
   21DSPC   C1A  285   1.642   5.597   5.454
   21DSPC   C2A  286   1.515   5.521   5.056
   21DSPC   C3A  287   1.381   5.145   4.866
   21DSPC   C4A  288   1.469   4.690   4.873
   21DSPC   C5A  289   1.475   4.253   4.703
   21DSPC   C1B  290   1.206   4.951   5.309
   21DSPC   C2B  291   0.971   4.820   4.917
   21DSPC   C3B  292   0.582   4.815   4.632
   21DSPC   C4B  293   0.251   4.540   4.452
   21DSPC   C5B  294   0.128   4.236   4.095
   22DSPC   NC3  295   4.153   6.418   5.573
   22DSPC   PO4  296   3.955   6.780   5.686
   22DSPC   GL1  297   4.147   7.056   5.984
   22DSPC   GL2  298   4.448   7.259   5.954
   22DSPC   C1A  299   4.104   7.353   6.325
   22DSPC   C2A  300   4.175   0.067   6.718
   22DSPC   C3A  301   4.343   0.509   6.764
   22DSPC   C4A  302   4.689   0.841   6.828
   22DSPC   C5A  303   5.112   0.940   7.028
   22DSPC   C1B  304   4.742   0.117   5.895
   22DSPC   C2B  305   4.923   0.534   5.719
   22DSPC   C3B  306   5.126   0.930   5.514
   22DSPC   C4B  307   5.388   1.328   5.428
   22DSPC   C5B  308   5.528   1.719   5.193
   23DSPC   NC3  309   2.914   7.491   2.615
   23DSPC   PO4  310   3.231   0.338   2.653
   23DSPC   GL1  311   3.036   0.718   2.769
   23DSPC   GL2  312   3.191   0.702   3.067
   23DSPC   C1A  313   3.084   1.170   2.922
   23DSPC   C2A  314   3.112   1.426   3.309
   23DSPC   C3A  315   3.189   1.238   3.725
   23DSPC   C4A  316   3.618   1.235   3.875
   23DSPC   C5A  317   3.988   1.355   3.637
   23DSPC   C1B  318   3.574   0.901   2.835
   23DSPC   C2B  319   4.043   0.915   2.685
   23DSPC   C3B  320   4.483   1.037   2.787
   23DSPC   C4B  321   4.761   1.384   2.620
   23DSPC   C5B  322   4.989   1.780   2.499
   24DSPC   NC3  323   2.503   5.292   7.224
   24DSPC   PO4  324   2.525   5.023   6.836
   24DSPC   GL1  325   2.211   4.694   6.896
   24DSPC   GL2  326   1.845   4.718   6.847
   24DSPC   C1A  327   2.164   4.253   6.986
   24DSPC   C2A  328   1.926   3.885   7.099
   24DSPC   C3A  329   1.576   3.712   7.339
   24DSPC   C4A  330   1.155   3.790   0.044
   24DSPC   C5A  331   0.693   3.785   0.126
   24DSPC   C1B  332   1.414   4.795   7.007
   24DSPC   C2B  333   1.078   4.486   7.120
   24DSPC   C3B  334   0.903   4.260   0.012
   24DSPC   C4B  335   0.501   4.251   0.278
   24DSPC   C5B  336   0.072   4.057   0.305
   25DSPC   NC3  337   6.317   3.713   3.940
   25DSPC   PO4  338   5.893   3.563   3.790
   25DSPC   GL1  339   6.099   3.873   3.545
   25DSPC   GL2  340   6.334   3.778   3.255
   25DSPC   C1A  341   6.124   4.257   3.336
   25DSPC   C2A  342   6.477   4.281   3.106
   25DSPC   C3A  343   6.599   3.979   2.768
   25DSPC   C4A  344   6.578   3.720   2.366
   25DSPC   C5A  345   6.583   3.370   2.041
   25DSPC   C1B  346   6.377   3.515   2.838
   25DSPC   C2B  347   6.256   3.297   2.422
   25DSPC   C3B  348   6.103   3.197   1.957
   25DSPC   C4B  349   6.087   2.889   1.578
   25DSPC   C5B  350   6.210   2.853   1.127
   26DSPC   NC3  351   5.821   5.241   6.241
   26DSPC   PO4  352   5.969   4.982   5.866
   26DSPC   GL1  353   6.081   5.118   5.445
   26DSPC   GL2  354   5.894   4.927   5.230
   26DSPC   C1A  355   6.315   5.191   5.050
   26DSPC   C2A  356   6.764   5.074   5.023
   26DSPC   C3A  357   7.002   4.752   4.806
   26DSPC   C4A  358   7.244   4.527   4.484
   26DSPC   C5A  359   7.251   4.094   4.393
   26DSPC   C1B  360   6.069   4.553   5.067
   26DSPC   C2B  361   6.025   4.377   4.650
   26DSPC   C3B  362   6.002   4.488   4.184
   26DSPC   C4B  363   6.159   4.233   3.848
   26DSPC   C5B  364   6.543   4.123   3.611
   27DSPC   NC3  365   2.894   1.904   3.233
   27DSPC   PO4  366   2.937   2.017   3.685
   27DSPC   GL1  367   2.980   2.428   3.834
   27DSPC   GL2  368   2.656   2.505   3.869
   27DSPC   C1A  369   3.030   2.751   4.141
   27DSPC   C2A  370   3.259   3.106   4.339
   27DSPC   C3A  371   3.364   3.558   4.248
   27DSPC   C4A  372   3.149   3.968   4.398
   27DSPC   C5A  373   2.804   4.272   4.520
   27DSPC   C1B  374   2.559   2.951   3.957
   27DSPC   C2B  375   2.487   3.412   4.108
   27DSPC   C3B  376   2.466   3.842   4.361
   27DSPC   C4B  377   2.374   4.125   4.754
   27DSPC   C5B  378   2.406   4.520   5.012
   28DSPC   NC3  379   5.140   3.107   5.410
   28DSPC   PO4  380   4.784   3.035   5.709
   28DSPC   GL1  381   4.829   3.239   6.114
   28DSPC   GL2  382   4.835   3.599   6.183
   28DSPC   C1A  383   5.139   3.203   6.449
   28DSPC   C2A  384   5.366   3.398   6.773
   28DSPC   C3A  385   5.637   3.773   6.825
   28DSPC   C4A  386   5.583   4.213   6.679
   28DSPC   C5A  387   5.535   4.649   6.862
   28DSPC   C1B  388   4.848   3.998   6.425
   28DSPC   C2B  389   4.721   4.186   6.802
   28DSPC   C3B  390   4.666   4.580   6.980
   28DSPC   C4B  391   4.459   4.947   6.785
   28DSPC   C5B  392   4.478   5.364   6.516
   29DSPC   NC3  393   4.442   6.836   1.694
   29DSPC   PO4  394   4.190   6.941   2.100
   29DSPC   GL1  395   4.310   6.672   2.401
   29DSPC   GL2  396   4.645   6.724   2.377
   29DSPC   C1A  397   4.399   6.309   2.646
   29DSPC   C2A  398   4.475   5.910   2.490
   29DSPC   C3A  399   4.833   5.650   2.467
   29DSPC   C4A  400   5.253   5.719   2.645
   29DSPC   C5A  401   5.436   6.057   2.914
   29DSPC   C1B  402   5.081   6.873   2.450
   29DSPC   C2B  403   5.489   6.659   2.346
   29DSPC   C3B  404   5.759   6.364   2.604
   29DSPC   C4B  405   5.957   5.998   2.825
   29DSPC   C5B  406   6.059   5.738   3.209
   30DSPC   NC3  407   0.981   4.408   4.559
   30DSPC   PO4  408   1.124   4.738   4.253
   30DSPC   GL1  409   0.875   4.614   3.886
   30DSPC   GL2  410   0.793   4.946   3.797
   30DSPC   C1A  411   0.590   4.575   3.493
   30DSPC   C2A  412   0.350   4.296   3.195
   30DSPC   C3A  413   7.434   4.100   3.183
   30DSPC   C4A  414   7.060   4.187   3.465
   30DSPC   C5A  415   6.827   4.568   3.549
   30DSPC   C1B  416   0.368   5.101   3.778
   30DSPC   C2B  417   0.054   5.403   3.623
   30DSPC   C3B  418   7.149   5.428   3.392
   30DSPC   C4B  419   6.753   5.236   3.307
   30DSPC   C5B  420   6.316   5.286   3.160
   31DSPC   NC3  421   3.532   0.338   3.142
   31DSPC   PO4  422   3.519   0.727   3.461
   31DSPC   GL1  423   3.290   0.356   3.553
   31DSPC   GL2  424   3.614   0.264   3.673
   31DSPC   C1A  425   3.297   7.393   3.670
   31DSPC   C2A  426   3.356   7.126   4.012
   31DSPC   C3A  427   3.616   6.987   4.316
   31DSPC   C4A  428   3.952   6.767   4.500
   31DSPC   C5A  429   4.383   6.877   4.618
   31DSPC   C1B  430   3.808   0.431   4.039
   31DSPC   C2B  431   4.005   0.262   4.414
   31DSPC   C3B  432   4.028   0.046   4.834
   31DSPC   C4B  433   4.346   7.246   4.997
   31DSPC   C5B  434   4.715   7.181   5.270
   32DSPC   NC3  435   1.372   4.566   6.139
   32DSPC   PO4  436   1.674   4.812   5.879
   32DSPC   GL1  437   2.038   4.915   5.674
   32DSPC   GL2  438   2.153   4.602   5.671
   32DSPC   C1A  439   2.478   4.950   5.494
   32DSPC   C2A  440   2.920   4.856   5.615
   32DSPC   C3A  441   3.287   4.790   5.884
   32DSPC   C4A  442   3.602   4.601   6.168
   32DSPC   C5A  443   3.916   4.272   6.117
   32DSPC   C1B  444   2.566   4.446   5.492
   32DSPC   C2B  445   3.020   4.318   5.531
   32DSPC   C3B  446   3.244   3.921   5.672
   32DSPC   C4B  447   3.595   3.676   5.873
   32DSPC   C5B  448   3.685   3.350   6.202
   33DSPC   NC3  449   6.361   4.510   7.206
   33DSPC   PO4  450   6.611   4.174   7.005
   33DSPC   GL1  451   6.479   4.507   6.723
   33DSPC   GL2  452   6.396   4.858   6.814
   33DSPC   C1A  453   6.205   4.638   6.381
   33DSPC   C2A  454   5.751   4.603   6.380
   33DSPC   C3A  455   5.426   4.915   6.398
   33DSPC   C4A  456   5.307   5.183   6.049
   33DSPC   C5A  457   5.163   5.619   5.977
   33DSPC   C1B  458   6.318   5.155   6.453
   33DSPC   C2B  459   6.253   5.618   6.342
   33DSPC   C3B  460   6.427   6.080   6.305
   33DSPC   C4B  461   6.685   6.491   6.309
   33DSPC   C5B  462   6.808   6.945   6.232
   34DSPC   NC3  463   1.569   4.290   6.948
   34DSPC   PO4  464   1.639   4.354   7.451
   34DSPC   GL1  465   1.335   4.150   0.276
   34DSPC   GL2  466   1.385   3.860   0.534
   34DSPC   C1A  467   0.933   4.074   0.508
   34DSPC   C2A  468   0.539   3.873   0.616
   34DSPC   C3A  469   0.106   3.758   0.712
   34DSPC   C4A  470   7.371   3.418   0.510
   34DSPC   C5A  471   7.444   2.955   0.599
   34DSPC   C1B  472   0.996   3.566   0.480
   34DSPC   C2B  473   0.693   3.205   0.517
   34DSPC   C3B  474   0.410   2.955   0.832
   34DSPC   C4B  475   0.228   2.557   0.799
   34DSPC   C5B  476   0.474   2.278   0.520
   35DSPC   NC3  477   1.739   2.043   4.690
   35DSPC   PO4  478   1.938   1.616   4.742
   35DSPC   GL1  479   2.333   1.556   4.621
   35DSPC   GL2  480   2.419   1.700   4.302
   35DSPC   C1A  481   2.477   1.208   4.394
   35DSPC   C2A  482   2.452   1.107   4.001
   35DSPC   C3A  483   2.529   0.702   3.954
   35DSPC   C4A  484   2.854   0.651   3.671
   35DSPC   C5A  485   2.915   0.972   3.381
   35DSPC   C1B  486   2.842   1.528   4.202
   35DSPC   C2B  487   3.283   1.606   4.058
   35DSPC   C3B  488   3.476   1.638   3.613
   35DSPC   C4B  489   3.638   1.403   3.260
   35DSPC   C5B  490   4.033   1.193   3.113
   36DSPC   NC3  491   1.998   1.384   4.296
   36DSPC   PO4  492   1.665   1.712   4.313
   36DSPC   GL1  493   1.536   1.402   4.651
   36DSPC   GL2  494   1.805   1.114   4.695
   36DSPC   C1A  495   1.101   1.270   4.798
   36DSPC   C2A  496   0.912   0.858   4.665
   36DSPC   C3A  497   0.772   0.609   4.306
   36DSPC   C4A  498   0.859   0.427   3.887
   36DSPC   C5A  499   0.981   0.237   3.479
   36DSPC   C1B  500   1.751   0.659   4.580
   36DSPC   C2B  501   1.798   0.209   4.555
   36DSPC   C3B  502   1.924   7.257   4.603
   36DSPC   C4B  503   2.170   7.034   4.258
   36DSPC   C5B  504   2.462   7.194   3.932
   37DSPC   NC3  505   6.752   6.714   0.787
   37DSPC   PO4  506   6.930   6.410   1.103
   37DSPC   GL1  507   7.224   6.700   0.936
   37DSPC   GL2  508   7.148   7.036   0.977
   37DSPC   C1A  509   0.140   6.867   1.002
   37DSPC   C2A  510   0.440   7.182   0.860
   37DSPC   C3A  511   0.777   7.452   0.823
   37DSPC   C4A  512   1.166   0.178   0.835
   37DSPC   C5A  513   1.565   0.314   0.617
   37DSPC   C1B  514   0.014   7.370   1.029
   37DSPC   C2B  515   0.441   0.071   1.210
   37DSPC   C3B  516   0.729   0.415   1.060
   37DSPC   C4B  517   0.689   0.824   0.828
   37DSPC   C5B  518   0.638   1.282   0.680
   38DSPC   NC3  519   2.318   3.096   7.374
   38DSPC   PO4  520   2.087   2.827   0.146
   38DSPC   GL1  521   1.998   2.361   0.166
   38DSPC   GL2  522   1.761   2.220   7.425
   38DSPC   C1A  523   1.866   1.963   0.424
   38DSPC   C2A  524   1.652   1.567   0.500
   38DSPC   C3A  525   1.379   1.508   0.843
   38DSPC   C4A  526   0.954   1.697   0.875
   38DSPC   C5A  527   0.596   1.787   0.600
   38DSPC   C1B  528   1.386   1.981   0.078
   38DSPC   C2B  529   0.944   1.946   0.256
   38DSPC   C3B  530   0.535   1.927   0.109
   38DSPC   C4B  531   0.141   1.956   0.305
   38DSPC   C5B  532   7.457   2.134   0.685
   39DSPC   NC3  533   4.940   1.131   3.030
   39DSPC   PO4  534   5.353   1.309   2.955
   39DSPC   GL1  535   5.309   0.869   2.830
   39DSPC   GL2  536   4.989   0.698   2.738
   39DSPC   C1A  537   5.454   0.516   2.585
   39DSPC   C2A  538   5.636   0.118   2.745
   39DSPC   C3A  539   5.455   7.277   2.999
   39DSPC   C4A  540   5.136   6.937   2.983
   39DSPC   C5A  541   4.763   6.872   3.236
   39DSPC   C1B  542   5.018   0.277   2.499
   39DSPC   C2B  543   5.066   7.359   2.667
   39DSPC   C3B  544   4.706   7.074   2.751
   39DSPC   C4B  545   4.341   6.810   2.836
   39DSPC   C5B  546   3.949   6.577   2.724
   40DSPC   NC3  547   4.200   1.764   7.001
   40DSPC   PO4  548   4.151   1.312   6.883
   40DSPC   GL1  549   4.573   1.471   6.916
   40DSPC   GL2  550   4.671   1.664   7.201
   40DSPC   C1A  551   5.017   1.426   6.888
   40DSPC   C2A  552   5.433   1.357   7.079
   40DSPC   C3A  553   5.622   1.557   7.442
   40DSPC   C4A  554   5.934   1.876   0.073
   40DSPC   C5A  555   6.304   1.952   0.311
   40DSPC   C1B  556   4.788   1.814   0.118
   40DSPC   C2B  557   5.016   2.127   0.376
   40DSPC   C3B  558   5.402   2.343   0.554
   40DSPC   C4B  559   5.547   2.359   0.977
   40DSPC   C5B  560   5.717   2.707   1.214
   41DSPC   NC3  561   1.734   5.219   6.939
   41DSPC   PO4  562   2.069   5.058   7.156
   41DSPC   GL1  563   2.259   5.074   0.067
   41DSPC   GL2  564   2.381   4.809   0.295
   41DSPC   C1A  565   2.622   5.289   0.252
   41DSPC   C2A  566   3.027   5.388   0.466
   41DSPC   C3A  567   3.200   5.322   0.892
   41DSPC   C4A  568   3.217   5.694   1.183
   41DSPC   C5A  569   3.136   6.140   1.244
   41DSPC   C1B  570   2.366   4.725   0.786
   41DSPC   C2B  571   2.356   4.746   1.282
   41DSPC   C3B  572   2.488   4.981   1.691
   41DSPC   C4B  573   2.386   5.227   2.105
   41DSPC   C5B  574   1.963   5.400   2.207
   42DSPC   NC3  575   5.222   5.513   0.708
   42DSPC   PO4  576   5.468   5.502   1.117
   42DSPC   GL1  577   5.893   5.590   1.296
   42DSPC   GL2  578   5.934   5.750   1.635
   42DSPC   C1A  579   6.359   5.523   1.271
   42DSPC   C2A  580   6.789   5.574   1.459
   42DSPC   C3A  581   7.156   5.821   1.373
   42DSPC   C4A  582   7.320   6.133   1.632
   42DSPC   C5A  583   7.191   6.364   1.994
   42DSPC   C1B  584   6.362   5.620   1.772
   42DSPC   C2B  585   6.684   5.669   2.084
   42DSPC   C3B  586   6.994   5.964   2.255
   42DSPC   C4B  587   7.029   6.344   2.487
   42DSPC   C5B  588   7.235   6.749   2.569
   43DSPC   NC3  589   4.821   5.629   3.028
   43DSPC   PO4  590   4.383   5.769   3.147
   43DSPC   GL1  591   4.658   6.091   3.012
   43DSPC   GL2  592   4.897   6.061   2.773
   43DSPC   C1A  593   5.027   6.311   3.202
   43DSPC   C2A  594   5.425   6.533   3.154
   43DSPC   C3A  595   5.595   6.802   2.829
   43DSPC   C4A  596   5.543   7.138   2.519
   43DSPC   C5A  597   5.861   7.255   2.229
   43DSPC   C1B  598   4.851   6.239   2.394
   43DSPC   C2B  599   5.042   6.499   2.108
   43DSPC   C3B  600   4.892   6.894   1.955
   43DSPC   C4B  601   5.052   7.216   1.690
   43DSPC   C5B  602   5.371   7.115   1.384
   44DSPC   NC3  603   2.664   1.800   0.955
   44DSPC   PO4  604   2.868   1.433   1.198
   44DSPC   GL1  605   2.599   1.325   0.844
   44DSPC   GL2  606   2.263   1.470   0.834
   44DSPC   C1A  607   2.452   1.103   0.472
   44DSPC   C2A  608   2.191   0.871   0.208
   44DSPC   C3A  609   2.014   0.952   7.292
   44DSPC   C4A  610   1.758   1.325   7.150
   44DSPC   C5A  611   1.485   1.707   7.113
   44DSPC   C1B  612   2.163   1.528   0.395
   44DSPC   C2B  613   2.236   1.392   7.485
   44DSPC   C3B  614   2.178   1.638   7.128
   44DSPC   C4B  615   2.121   2.081   7.074
   44DSPC   C5B  616   1.829   2.338   6.843
   45DSPC   NC3  617   7.066   1.866   5.794
   45DSPC   PO4  618   6.664   2.023   5.515
   45DSPC   GL1  619   6.236   2.272   5.411
   45DSPC   GL2  620   6.190   2.368   5.056
   45DSPC   C1A  621   5.800   2.519   5.344
   45DSPC   C2A  622   5.528   2.856   5.143
   45DSPC   C3A  623   5.544   3.330   5.143
   45DSPC   C4A  624   5.824   3.632   4.937
   45DSPC   C5A  625   6.189   3.734   4.639
   45DSPC   C1B  626   6.019   2.811   4.941
   45DSPC   C2B  627   6.089   3.132   4.574
   45DSPC   C3B  628   6.293   3.159   4.126
   45DSPC   C4B  629   6.400   3.093   3.648
   45DSPC   C5B  630   6.571   2.938   3.214
   46DSPC   NC3  631   7.480   3.226   3.310
   46DSPC   PO4  632   7.393   3.455   2.894
   46DSPC   GL1  633   7.364   3.483   2.417
   46DSPC   GL2  634   7.060   3.498   2.197
   46DSPC   C1A  635   7.487   3.287   2.007
   46DSPC   C2A  636   7.448   2.882   1.819
   46DSPC   C3A  637   7.412   2.555   1.545
   46DSPC   C4A  638   7.405   2.333   1.163
   46DSPC   C5A  639   7.001   2.209   0.958
   46DSPC   C1B  640   7.001   3.095   1.964
   46DSPC   C2B  641   6.937   2.731   1.720
   46DSPC   C3B  642   6.570   2.641   1.427
   46DSPC   C4B  643   6.194   2.397   1.426
   46DSPC   C5B  644   5.733   2.302   1.520
   47DSPC   NC3  645   5.141   4.808   5.010
   47DSPC   PO4  646   4.964   4.451   4.748
   47DSPC   GL1  647   5.373   4.405   4.920
   47DSPC   GL2  648   5.630   4.673   4.855
   47DSPC   C1A  649   5.696   4.238   5.163
   47DSPC   C2A  650   6.106   4.044   5.037
   47DSPC   C3A  651   6.484   4.166   4.784
   47DSPC   C4A  652   6.777   4.333   4.443
   47DSPC   C5A  653   6.604   4.465   4.005
   47DSPC   C1B  654   6.044   4.904   4.690
   47DSPC   C2B  655   6.508   5.110   4.572
   47DSPC   C3B  656   6.983   5.227   4.590
   47DSPC   C4B  657   7.405   5.395   4.457
   47DSPC   C5B  658   0.182   5.744   4.534
   48DSPC   NC3  659   6.781   3.843   5.080
   48DSPC   PO4  660   6.980   3.596   4.727
   48DSPC   GL1  661   7.253   3.805   5.047
   48DSPC   GL2  662   0.073   3.597   5.145
   48DSPC   C1A  663   7.140   4.132   5.347
   48DSPC   C2A  664   7.431   4.431   5.492
   48DSPC   C3A  665   0.341   4.383   5.712
   48DSPC   C4A  666   0.749   4.394   5.944
   48DSPC   C5A  667   1.177   4.244   5.799
   48DSPC   C1B  668   0.394   3.512   5.464
   48DSPC   C2B  669   0.851   3.574   5.490
   48DSPC   C3B  670   1.148   3.930   5.373
   48DSPC   C4B  671   1.592   4.094   5.497
   48DSPC   C5B  672   2.066   4.187   5.390
   49DSPC   NC3  673   2.840   6.782   4.752
   49DSPC   PO4  674   2.664   6.424   5.011
   49DSPC   GL1  675   2.915   6.720   5.216
   49DSPC   GL2  676   3.175   6.520   5.105
   49DSPC   C1A  677   3.210   6.854   5.544
   49DSPC   C2A  678   3.366   6.797   5.989
   49DSPC   C3A  679   3.579   6.463   6.233
   49DSPC   C4A  680   3.786   6.046   6.213
   49DSPC   C5A  681   3.817   5.627   5.979
   49DSPC   C1B  682   3.503   6.345   5.411
   49DSPC   C2B  683   3.789   6.058   5.673
   49DSPC   C3B  684   4.190   5.976   5.911
   49DSPC   C4B  685   4.510   5.642   6.010
   49DSPC   C5B  686   4.802   5.281   6.125
   50DSPC   NC3  687   7.448   7.111   0.568
   50DSPC   PO4  688   0.038   7.421   0.252
   50DSPC   GL1  689   0.324   0.062   7.411
   50DSPC   GL2  690   0.667   0.067   7.442
   50DSPC   C1A  691   0.453   0.361   7.054
   50DSPC   C2A  692   0.535   0.833   6.978
   50DSPC   C3A  693   0.611   1.231   7.258
   50DSPC   C4A  694   0.679   1.449   0.179
   50DSPC   C5A  695   1.066   1.495   0.430
   50DSPC   C1B  696   0.802   0.509   0.008
   50DSPC   C2B  697   1.217   0.685   0.086
   50DSPC   C3B  698   1.514   0.970   7.419
   50DSPC   C4B  699   1.812   1.203   0.178
   50DSPC   C5B  700   1.920   1.122   0.610
   51DSPC   NC3  701   1.435   3.260   7.089
   51DSPC   PO4  702   1.081   3.520   6.925
   51DSPC   GL1  703   0.973   3.215   7.247
   51DSPC   GL2  704   1.079   2.896   7.129
   51DSPC   C1A  705   0.666   2.909   7.436
   51DSPC   C2A  706   0.290   2.632   7.384
   51DSPC   C3A  707   0.037   2.240   7.391
   51DSPC   C4A  708   0.130   1.795   7.295
   51DSPC   C5A  709   0.153   1.448   6.969
   51DSPC   C1B  710   0.897   2.494   7.100
   51DSPC   C2B  711   0.961   2.073   7.279
   51DSPC   C3B  712   1.005   1.654   7.330
   51DSPC   C4B  713   1.078   1.315   7.050
   51DSPC   C5B  714   1.021   0.857   7.138
   52DSPC   NC3  715   3.836   6.654   6.875
   52DSPC   PO4  716   3.457   6.765   7.168
   52DSPC   GL1  717   3.599   6.637   0.080
   52DSPC   GL2  718   3.832   6.688   0.362
   52DSPC   C1A  719   3.708   6.216   0.139
   52DSPC   C2A  720   3.496   5.928   0.396
   52DSPC   C3A  721   3.502   5.691   0.756
   52DSPC   C4A  722   3.721   5.290   0.782
   52DSPC   C5A  723   4.182   5.316   0.764
   52DSPC   C1B  724   4.145   6.344   0.345
   52DSPC   C2B  725   4.397   6.030   0.473
   52DSPC   C3B  726   4.431   5.745   0.803
   52DSPC   C4B  727   4.712   5.406   0.827
   52DSPC   C5B  728   4.974   5.019   0.828
   53DSPC   NC3  729   4.632   2.560   1.720
   53DSPC   PO4  730   4.713   3.014   1.609
   53DSPC   GL1  731   4.289   3.104   1.491
   53DSPC   GL2  732   4.256   3.456   1.567
   53DSPC   C1A  733   4.078   3.308   1.132
   53DSPC   C2A  734   3.838   3.639   1.054
   53DSPC   C3A  735   3.479   3.680   0.835
   53DSPC   C4A  736   3.115   3.859   1.006
   53DSPC   C5A  737   2.693   3.917   1.091
   53DSPC   C1B  738   3.923   3.759   1.701
   53DSPC   C2B  739   3.586   3.899   2.018
   53DSPC   C3B  740   3.197   4.071   2.254
   53DSPC   C4B  741   2.863   4.381   2.335
   53DSPC   C5B  742   2.454   4.463   2.557
   54DSPC   NC3  743   5.098   2.323   2.508
   54DSPC   PO4  744   5.512   2.360   2.258
   54DSPC   GL1  745   5.395   2.416   1.804
   54DSPC   GL2  746   5.146   2.685   1.686
   54DSPC   C1A  747   5.212   2.306   1.372
   54DSPC   C2A  748   4.778   2.439   1.223
   54DSPC   C3A  749   4.362   2.692   1.161
   54DSPC   C4A  750   3.925   2.842   1.039
   54DSPC   C5A  751   3.588   3.181   0.984
   54DSPC   C1B  752   5.194   2.781   1.209
   54DSPC   C2B  753   5.032   3.086   0.915
   54DSPC   C3B  754   4.744   3.376   0.675
   54DSPC   C4B  755   4.693   3.801   0.518
   54DSPC   C5B  756   4.683   4.253   0.405
   55DSPC   NC3  757   3.814   5.392   2.042
   55DSPC   PO4  758   3.934   5.803   1.854
   55DSPC   GL1  759   3.915   5.869   1.427
   55DSPC   GL2  760   3.893   6.187   1.503
   55DSPC   C1A  761   3.628   6.058   1.102
   55DSPC   C2A  762   3.405   6.454   0.967
   55DSPC   C3A  763   2.971   6.497   0.843
   55DSPC   C4A  764   2.654   6.839   0.826
   55DSPC   C5A  765   2.483   7.227   0.636
   55DSPC   C1B  766   3.517   6.431   1.469
   55DSPC   C2B  767   3.531   6.863   1.303
   55DSPC   C3B  768   3.395   7.306   1.245
   55DSPC   C4B  769   3.158   0.213   1.305
   55DSPC   C5B  770   3.053   0.677   1.385
   56DSPC   NC3  771   6.899   0.304   2.430
   56DSPC   PO4  772   7.211   0.333   2.053
   56DSPC   GL1  773   7.337   0.272   1.606
   56DSPC   GL2  774   7.497   7.454   1.519
   56DSPC   C1A  775   0.027   0.361   1.161
   56DSPC   C2A  776   0.323   0.271   0.765
   56DSPC   C3A  777   0.739   0.395   0.535
   56DSPC   C4A  778   1.147   0.630   0.591
   56DSPC   C5A  779   1.526   0.800   0.827
   56DSPC   C1B  780   0.321   7.133   1.400
   56DSPC   C2B  781   0.764   7.151   1.262
   56DSPC   C3B  782   1.182   7.118   1.024
   56DSPC   C4B  783   1.663   7.029   0.946
   56DSPC   C5B  784   2.140   6.944   1.005
   57DSPC   NC3  785   4.321   4.210   7.163
   57DSPC   PO4  786   3.865   4.370   7.209
   57DSPC   GL1  787   3.453   4.252   7.307
   57DSPC   GL2  788   3.404   4.015   0.062
   57DSPC   C1A  789   3.206   3.917   7.108
   57DSPC   C2A  790   3.223   3.466   7.062
   57DSPC   C3A  791   3.072   3.037   7.159
   57DSPC   C4A  792   2.741   2.730   7.325
   57DSPC   C5A  793   2.682   2.654   0.278
   57DSPC   C1B  794   3.520   3.645   0.287
   57DSPC   C2B  795   3.381   3.263   0.471
   57DSPC   C3B  796   3.256   2.882   0.635
   57DSPC   C4B  797   2.882   2.622   0.738
   57DSPC   C5B  798   2.573   2.270   0.628
   58DSPC   NC3  799   5.580   3.464   7.294
   58DSPC   PO4  800   5.425   3.134   0.116
   58DSPC   GL1  801   4.987   3.013   0.073
   58DSPC   GL2  802   4.998   3.019   0.415
   58DSPC   C1A  803   4.527   3.006   0.207
   58DSPC   C2A  804   4.206   2.866   7.433
   58DSPC   C3A  805   4.265   2.495   7.190
   58DSPC   C4A  806   4.564   2.158   7.086
   58DSPC   C5A  807   4.925   1.950   6.874
   58DSPC   C1B  808   4.889   2.604   0.265
   58DSPC   C2B  809   4.565   2.311   0.099
   58DSPC   C3B  810   4.313   1.939   7.488
   58DSPC   C4B  811   4.389   1.477   0.065
   58DSPC   C5B  812   4.723   1.239   0.276
   59DSPC   NC3  813   0.665   2.749   3.894
   59DSPC   PO4  814   0.781   2.998   4.293
   59DSPC   GL1  815   0.564   3.341   4.110
   59DSPC   GL2  816   0.328   3.427   4.358
   59DSPC   C1A  817   0.611   3.806   4.125
   59DSPC   C2A  818   0.647   4.271   4.156
   59DSPC   C3A  819   0.421   4.636   3.988
   59DSPC   C4A  820   7.475   4.707   4.047
   59DSPC   C5A  821   7.113   4.424   3.987
   59DSPC   C1B  822   0.084   3.737   4.134
   59DSPC   C2B  823   7.228   3.930   3.908
   59DSPC   C3B  824   6.782   3.994   4.062
   59DSPC   C4B  825   6.359   4.102   4.293
   59DSPC   C5B  826   5.914   4.001   4.294
   60DSPC   NC3  827   3.140   6.765   0.073
   60DSPC   PO4  828   3.010   6.337   0.198
   60DSPC   GL1  829   3.387   6.403   0.419
   60DSPC   GL2  830   3.357   6.700   0.536
   60DSPC   C1A  831   3.759   6.276   0.659
   60DSPC   C2A  832   4.112   6.139   0.882
   60DSPC   C3A  833   4.534   6.233   0.922
   60DSPC   C4A  834   4.949   6.339   0.831
   60DSPC   C5A  835   5.289   6.500   1.094
   60DSPC   C1B  836   3.672   6.893   0.805
   60DSPC   C2B  837   4.004   7.006   1.119
   60DSPC   C3B  838   4.176   7.252   1.492
   60DSPC   C4B  839   4.569   7.367   1.776
   60DSPC   C5B  840   4.898   0.153   1.984
   61DSPC   NC3  841   0.830   3.473   4.480
   61DSPC   PO4  842   0.740   3.282   4.883
   61DSPC   GL1  843   0.684   2.885   5.024
   61DSPC   GL2  844   0.942   2.689   5.175
   61DSPC   C1A  845   0.403   2.628   5.250
   61DSPC   C2A  846   0.035   2.401   5.435
   61DSPC   C3A  847   7.368   1.987   5.359
   61DSPC   C4A  848   0.124   1.607   5.340
   61DSPC   C5A  849   0.206   1.350   4.966
   61DSPC   C1B  850   1.168   2.258   5.145
   61DSPC   C2B  851   1.433   1.861   5.100
   61DSPC   C3B  852   1.459   1.392   5.139
   61DSPC   C4B  853   1.182   1.044   5.280
   61DSPC   C5B  854   1.230   0.584   5.280
   62DSPC   NC3  855   3.747   5.137   5.112
   62DSPC   PO4  856   3.590   5.415   4.757
   62DSPC   GL1  857   3.290   5.308   5.070
   62DSPC   GL2  858   3.245   4.969   4.986
   62DSPC   C1A  859   2.858   5.190   5.217
   62DSPC   C2A  860   2.481   5.052   4.992
   62DSPC   C3A  861   2.177   4.859   4.712
   62DSPC   C4A  862   1.958   4.462   4.732
   62DSPC   C5A  863   1.999   4.126   4.405
   62DSPC   C1B  864   2.892   4.665   5.148
   62DSPC   C2B  865   2.805   4.206   5.050
   62DSPC   C3B  866   2.789   3.811   4.765
   62DSPC   C4B  867   2.887   3.526   4.394
   62DSPC   C5B  868   2.965   3.286   3.978
   63DSPC   NC3  869   2.238   5.680   3.059
   63DSPC   PO4  870   2.660   5.889   2.991
   63DSPC   GL1  871   2.839   6.309   3.117
   63DSPC   GL2  872   2.687   6.656   3.125
   63DSPC   C1A  873   3.159   6.555   2.894
   63DSPC   C2A  874   3.391   6.833   2.622
   63DSPC   C3A  875   3.325   7.222   2.389
   63DSPC   C4A  876   3.140   7.498   2.054
   63DSPC   C5A  877   3.240   0.382   1.794
   63DSPC   C1B  878   2.466   7.051   3.292
   63DSPC   C2B  879   2.569   0.015   3.272
   63DSPC   C3B  880   2.770   0.446   3.205
   63DSPC   C4B  881   2.625   0.821   2.996
   63DSPC   C5B  882   2.303   1.163   3.078
   64DSPC   NC3  883   5.785   0.865   6.946
   64DSPC   PO4  884   6.246   0.687   6.934
   64DSPC   GL1  885   6.526   0.342   6.729
   64DSPC   GL2  886   6.862   0.172   6.844
   64DSPC   C1A  887   6.746   0.171   6.349
   64DSPC   C2A  888   7.070   7.412   6.206
   64DSPC   C3A  889   7.285   7.064   6.391
   64DSPC   C4A  890   7.377   7.003   6.815
   64DSPC   C5A  891   7.268   6.777   7.149
   64DSPC   C1B  892   6.889   7.232   6.660
   64DSPC   C2B  893   6.941   6.744   6.702
   64DSPC   C3B  894   6.745   6.292   6.789
   64DSPC   C4B  895   6.525   5.849   6.751
   64DSPC   C5B  896   6.216   5.483   6.846
   65DSPC   NC3  897   1.097   2.117   2.832
   65DSPC   PO4  898   0.795   2.343   2.543
   65DSPC   GL1  899   0.654   2.303   2.071
   65DSPC   GL2  900   0.736   2.055   1.765
   65DSPC   C1A  901   0.388   2.488   1.732
   65DSPC   C2A  902   0.378   2.619   1.288
   65DSPC   C3A  903   0.706   2.528   0.956
   65DSPC   C4A  904   0.932   2.188   0.733
   65DSPC   C5A  905   1.325   1.954   0.597
   65DSPC   C1B  906   0.823   1.706   1.402
   65DSPC   C2B  907   0.898   1.281   1.148
   65DSPC   C3B  908   1.101   1.106   0.765
   65DSPC   C4B  909   1.387   1.077   0.425
   65DSPC   C5B  910   1.690   0.732   0.336
   66DSPC   NC3  911   4.643   3.084   6.566
   66DSPC   PO4  912   4.375   3.347   6.267
   66DSPC   GL1  913   4.105   3.477   6.624
   66DSPC   GL2  914   4.389   3.399   6.868
   66DSPC   C1A  915   3.666   3.639   6.801
   66DSPC   C2A  916   3.638   3.696   7.268
   66DSPC   C3A  917   3.990   3.736   0.055
   66DSPC   C4A  918   4.287   3.509   0.376
   66DSPC   C5A  919   4.320   3.633   0.825
   66DSPC   C1B  920   4.598   3.745   7.086
   66DSPC   C2B  921   4.866   4.033   7.274
   66DSPC   C3B  922   5.063   3.999   0.175
   66DSPC   C4B  923   5.180   3.656   0.457
   66DSPC   C5B  924   5.181   3.581   0.892
   67DSPC   NC3  925   0.100   0.949   6.136
   67DSPC   PO4  926   7.436   0.625   5.890
   67DSPC   GL1  927   0.146   0.372   6.193
   67DSPC   GL2  928   0.511   0.279   6.149
   67DSPC   C1A  929   0.080   7.429   6.173
   67DSPC   C2A  930   0.162   6.974   6.069
   67DSPC   C3A  931   0.546   6.726   6.194
   67DSPC   C4A  932   0.946   6.576   5.994
   67DSPC   C5A  933   1.335   6.751   5.818
   67DSPC   C1B  934   0.917   0.079   5.984
   67DSPC   C2B  935   1.342   7.425   5.946
   67DSPC   C3B  936   1.632   7.189   5.662
   67DSPC   C4B  937   2.062   7.122   5.770
   67DSPC   C5B  938   2.498   7.054   5.613
   68DSPC   NC3  939   3.016   2.398   3.369
   68DSPC   PO4  940   3.330   2.141   3.160
   68DSPC   GL1  941   3.687   1.907   3.281
   68DSPC   GL2  942   3.844   1.983   3.597
   68DSPC   C1A  943   4.083   1.686   3.260
   68DSPC   C2A  944   4.445   1.703   3.539
   68DSPC   C3A  945   4.836   1.878   3.735
   68DSPC   C4A  946   5.075   1.844   4.147
   68DSPC   C5A  947   5.155   1.766   4.618
   68DSPC   C1B  948   3.800   1.740   3.993
   68DSPC   C2B  949   3.983   1.682   4.378
   68DSPC   C3B  950   4.366   1.483   4.517
   68DSPC   C4B  951   4.739   1.442   4.764
   68DSPC   C5B  952   5.070   1.516   5.063
   69DSPC   NC3  953   3.649   5.926   4.185
   69DSPC   PO4  954   3.814   5.982   3.728
   69DSPC   GL1  955   4.097   6.203   3.395
   69DSPC   GL2  956   4.084   6.187   3.029
   69DSPC   C1A  957   4.467   6.461   3.187
   69DSPC   C2A  958   4.792   6.563   2.836
   69DSPC   C3A  959   5.200   6.461   2.707
   69DSPC   C4A  960   5.344   6.161   2.403
   69DSPC   C5A  961   5.149   5.871   2.111
   69DSPC   C1B  962   3.980   5.947   2.663
   69DSPC   C2B  963   4.118   5.553   2.455
   69DSPC   C3B  964   4.405   5.402   2.117
   69DSPC   C4B  965   4.511   5.216   1.699
   69DSPC   C5B  966   4.351   4.850   1.466
   70DSPC   NC3  967   3.856   4.247   0.186
   70DSPC   PO4  968   4.233   4.538   0.038
   70DSPC   GL1  969   4.023   4.625   0.415
   70DSPC   GL2  970   4.251   4.459   0.610
   70DSPC   C1A  971   4.039   4.851   0.809
   70DSPC   C2A  972   3.985   5.089   1.171
   70DSPC   C3A  973   4.010   5.221   1.577
   70DSPC   C4A  974   4.129   4.955   1.927
   70DSPC   C5A  975   4.315   4.520   1.875
   70DSPC   C1B  976   4.275   4.512   1.089
   70DSPC   C2B  977   4.509   4.321   1.413
   70DSPC   C3B  978   4.402   4.004   1.749
   70DSPC   C4B  979   4.311   3.647   2.036
   70DSPC   C5B  980   4.328   3.377   2.415
   71DSPC   NC3  981   4.516   1.719   2.292
   71DSPC   PO4  982   4.809   1.537   1.929
   71DSPC   GL1  983   4.411   1.694   1.841
   71DSPC   GL2  984   4.520   2.004   1.674
   71DSPC   C1A  985   4.025   1.581   2.084
   71DSPC   C2A  986   3.582   1.707   1.952
   71DSPC   C3A  987   3.296   1.861   1.583
   71DSPC   C4A  988   2.939   2.111   1.333
   71DSPC   C5A  989   2.622   2.436   1.139
   71DSPC   C1B  990   4.209   2.322   1.534
   71DSPC   C2B  991   3.992   2.739   1.556
   71DSPC   C3B  992   3.611   2.915   1.771
   71DSPC   C4B  993   3.242   3.206   1.707
   71DSPC   C5B  994   3.207   3.515   1.377
   72DSPC   NC3  995   5.643   6.082   1.962
   72DSPC   PO4  996   5.833   5.716   2.174
   72DSPC   GL1  997   5.499   5.638   1.849
   72DSPC   GL2  998   5.591   5.372   1.615
   72DSPC   C1A  999   5.069   5.525   1.651
   72DSPC   C2A 1000   4.858   5.230   1.319
   72DSPC   C3A 1001   4.820   4.758   1.292
   72DSPC   C4A 1002   5.017   4.384   1.131
   72DSPC   C5A 1003   5.439   4.341   0.927
   72DSPC   C1B 1004   6.044   5.222   1.545
   72DSPC   C2B 1005   6.364   4.982   1.253
   72DSPC   C3B 1006   6.580   4.621   0.974
   72DSPC   C4B 1007   6.770   4.279   0.662
   72DSPC   C5B 1008   7.019   4.146   0.269
   73DSPC   NC3 1009   0.338   4.023   4.510
   73DSPC   PO4 1010   0.462   3.694   4.779
   73DSPC   GL1 1011   0.256   3.288   4.814
   73DSPC   GL2 1012   0.303   3.134   5.140
   73DSPC   C1A 1013   0.297   2.814   4.742
   73DSPC   C2A 1014   0.637   2.503   4.772
   73DSPC   C3A 1015   1.106   2.541   4.706
   73DSPC   C4A 1016   1.516   2.559   4.927
   73DSPC   C5A 1017   1.742   2.277   5.178
   73DSPC   C1B 1018   0.630   3.049   5.483
   73DSPC   C2B 1019   0.889   3.168   5.867
   73DSPC   C3B 1020   1.096   3.093   6.310
   73DSPC   C4B 1021   1.346   2.910   6.686
   73DSPC   C5B 1022   1.570   2.723   7.056
   74DSPC   NC3 1023   3.192   6.404   3.428
   74DSPC   PO4 1024   3.041   6.847   3.463
   74DSPC   GL1 1025   2.862   7.112   3.078
   74DSPC   GL2 1026   2.888   6.975   2.728
   74DSPC   C1A 1027   2.475   7.290   2.834
   74DSPC   C2A 1028   2.401   0.046   2.468
   74DSPC   C3A 1029   2.672   0.224   2.117
   74DSPC   C4A 1030   2.756   0.299   1.643
   74DSPC   C5A 1031   2.678   0.391   1.178
   74DSPC   C1B 1032   2.990   6.849   2.265
   74DSPC   C2B 1033   3.090   6.657   1.810
   74DSPC   C3B 1034   3.063   6.659   1.331
   74DSPC   C4B 1035   3.164   6.944   0.958
   74DSPC   C5B 1036   3.031   7.085   0.550
   75DSPC   NC3 1037   2.351   0.364   5.343
   75DSPC   PO4 1038   2.724   0.093   5.285
   75DSPC   GL1 1039   2.780   7.174   5.081
   75DSPC   GL2 1040   2.502   6.928   5.112
   75DSPC   C1A 1041   3.209   7.045   5.037
   75DSPC   C2A 1042   3.561   6.814   5.161
   75DSPC   C3A 1043   3.679   6.446   4.940
   75DSPC   C4A 1044   3.328   6.187   4.747
   75DSPC   C5A 1045   3.012   6.377   4.447
   75DSPC   C1B 1046   2.287   6.855   4.721
   75DSPC   C2B 1047   2.492   6.655   4.363
   75DSPC   C3B 1048   2.530   6.684   3.911
   75DSPC   C4B 1049   2.496   6.417   3.544
   75DSPC   C5B 1050   2.166   6.119   3.386
   76DSPC   NC3 1051   5.001   6.725   1.471
   76DSPC   PO4 1052   4.654   6.903   1.226
   76DSPC   GL1 1053   4.581   7.319   0.987
   76DSPC   GL2 1054   4.240   7.429   1.001
   76DSPC   C1A 1055   4.443   7.495   0.549
   76DSPC   C2A 1056   4.260   7.329   0.146
   76DSPC   C3A 1057   3.896   7.078   0.050
   76DSPC   C4A 1058   3.493   7.105   0.259
   76DSPC   C5A 1059   3.249   7.492   0.324
   76DSPC   C1B 1060   3.778   7.410   0.917
   76DSPC   C2B 1061   3.375   0.128   0.826
   76DSPC   C3B 1062   3.098   0.513   0.880
   76DSPC   C4B 1063   2.742   0.829   0.881
   76DSPC   C5B 1064   2.296   0.957   0.943
   77DSPC   NC3 1065   1.099   7.460   3.935
   77DSPC   PO4 1066   1.421   7.299   4.195
   77DSPC   GL1 1067   1.570   0.207   4.152
   77DSPC   GL2 1068   1.376   0.377   3.832
   77DSPC   C1A 1069   2.121   0.369   4.046
   77DSPC   C2A 1070   2.542   0.204   3.969
   77DSPC   C3A 1071   2.865   0.152   3.649
   77DSPC   C4A 1072   3.079   0.037   3.233
   77DSPC   C5A 1073   3.288   7.241   2.933
   77DSPC   C1B 1074   1.534   0.840   3.666
   77DSPC   C2B 1075   1.863   0.952   3.344
   77DSPC   C3B 1076   2.155   0.661   3.137
   77DSPC   C4B 1077   2.371   0.336   2.922
   77DSPC   C5B 1078   2.603   0.500   2.570
   78DSPC   NC3 1079   0.924   0.963   6.621
   78DSPC   PO4 1080   1.404   0.954   6.589
   78DSPC   GL1 1081   1.182   0.591   6.455
   78DSPC   GL2 1082   1.002   0.551   6.152
   78DSPC   C1A 1083   1.099   0.150   6.473
   78DSPC   C2A 1084   0.739   7.424   6.467
   78DSPC   C3A 1085   0.562   7.248   6.120
   78DSPC   C4A 1086   0.670   6.960   5.760
   78DSPC   C5A 1087   0.944   6.680   5.480
   78DSPC   C1B 1088   1.270   0.407   5.774
   78DSPC   C2B 1089   1.413   0.097   5.432
   78DSPC   C3B 1090   1.657   7.349   5.090
   78DSPC   C4B 1091   1.849   6.927   4.985
   78DSPC   C5B 1092   1.689   6.491   4.911
   79DSPC   NC3 1093   4.695   2.072   3.251
   79DSPC   PO4 1094   4.776   2.419   2.926
   79DSPC   GL1 1095   4.662   2.162   2.576
   79DSPC   GL2 1096   4.314   2.151   2.509
   79DSPC   C1A 1097   4.692   2.194   2.135
   79DSPC   C2A 1098   4.993   2.180   1.809
   79DSPC   C3A 1099   5.374   1.943   1.718
   79DSPC   C4A 1100   5.536   1.571   1.927
   79DSPC   C5A 1101   5.422   1.134   1.929
   79DSPC   C1B 1102   4.181   2.075   2.045
   79DSPC   C2B 1103   3.988   1.849   1.653
   79DSPC   C3B 1104   3.688   1.479   1.498
   79DSPC   C4B 1105   3.489   1.034   1.371
   79DSPC   C5B 1106   3.520   0.575   1.196
   80DSPC   NC3 1107   7.016   5.868   2.768
   80DSPC   PO4 1108   6.712   5.883   3.140
   80DSPC   GL1 1109   6.505   5.593   3.470
   80DSPC   GL2 1110   6.723   5.515   3.763
   80DSPC   C1A 1111   6.376   5.160   3.665
   80DSPC   C2A 1112   6.332   4.898   4.064
   80DSPC   C3A 1113   6.398   4.644   4.434
   80DSPC   C4A 1114   6.493   4.681   4.850
   80DSPC   C5A 1115   6.447   4.789   5.315
   80DSPC   C1B 1116   6.426   5.402   4.140
   80DSPC   C2B 1117   6.084   5.380   4.493
   80DSPC   C3B 1118   5.834   5.329   4.906
   80DSPC   C4B 1119   5.726   5.416   5.368
   80DSPC   C5B 1120   5.658   5.563   5.824
   81DSPC   NC3 1121   6.183   1.083   7.260
   81DSPC   PO4 1122   6.187   1.268   0.199
   81DSPC   GL1 1123   6.050   1.583   0.502
   81DSPC   GL2 1124   5.711   1.616   0.449
   81DSPC   C1A 1125   5.878   1.670   0.932
   81DSPC   C2A 1126   5.940   2.033   1.151
   81DSPC   C3A 1127   6.055   2.403   0.955
   81DSPC   C4A 1128   5.837   2.657   0.681
   81DSPC   C5A 1129   5.425   2.826   0.724
   81DSPC   C1B 1130   5.431   1.864   0.708
   81DSPC   C2B 1131   5.096   2.129   0.895
   81DSPC   C3B 1132   4.986   2.561   0.774
   81DSPC   C4B 1133   4.629   2.835   0.719
   81DSPC   C5B 1134   4.275   3.108   0.699
   82DSPC   NC3 1135   1.420   0.837   6.092
   82DSPC   PO4 1136   1.619   1.122   5.789
   82DSPC   GL1 1137   1.804   1.389   5.456
   82DSPC   GL2 1138   1.991   1.291   5.149
   82DSPC   C1A 1139   1.928   1.821   5.343
   82DSPC   C2A 1140   2.223   2.118   5.093
   82DSPC   C3A 1141   2.551   2.407   4.895
   82DSPC   C4A 1142   2.996   2.321   4.788
   82DSPC   C5A 1143   3.402   2.114   4.855
   82DSPC   C1B 1144   2.379   1.170   4.905
   82DSPC   C2B 1145   2.769   1.414   4.739
   82DSPC   C3B 1146   3.198   1.415   4.587
   82DSPC   C4B 1147   3.592   1.311   4.377
   82DSPC   C5B 1148   3.706   0.881   4.233
   83DSPC   NC3 1149   2.077   4.614   7.375
   83DSPC   PO4 1150   2.506   4.769   7.291
   83DSPC   GL1 1151   2.844   5.009   7.439
   83DSPC   GL2 1152   2.913   4.852   0.245
   83DSPC   C1A 1153   3.270   5.190   0.052
   83DSPC   C2A 1154   3.585   5.429   0.310
   83DSPC   C3A 1155   3.949   5.709   0.528
   83DSPC   C4A 1156   3.964   5.684   1.006
   83DSPC   C5A 1157   3.674   5.496   1.277
   83DSPC   C1B 1158   3.273   4.954   0.510
   83DSPC   C2B 1159   3.581   4.735   0.692
   83DSPC   C3B 1160   3.761   4.318   0.692
   83DSPC   C4B 1161   4.068   4.087   0.928
   83DSPC   C5B 1162   4.226   3.892   1.278
   84DSPC   NC3 1163   3.501   1.043   4.808
   84DSPC   PO4 1164   3.793   0.697   4.862
   84DSPC   GL1 1165   3.938   1.056   4.597
   84DSPC   GL2 1166   3.940   1.363   4.783
   84DSPC   C1A 1167   4.059   1.227   4.170
   84DSPC   C2A 1168   4.287   1.534   3.991
   84DSPC   C3A 1169   4.571   1.755   4.142
   84DSPC   C4A 1170   4.690   1.905   4.504
   84DSPC   C5A 1171   4.600   2.301   4.707
   84DSPC   C1B 1172   4.309   1.582   5.024
   84DSPC   C2B 1173   4.698   1.881   5.014
   84DSPC   C3B 1174   5.105   2.038   5.192
   84DSPC   C4B 1175   5.261   2.471   5.377
   84DSPC   C5B 1176   5.489   2.806   5.658
   85DSPC   NC3 1177   3.889   5.779   3.270
   85DSPC   PO4 1178   3.615   6.170   3.249
   85DSPC   GL1 1179   3.637   6.409   3.623
   85DSPC   GL2 1180   3.434   6.294   3.887
   85DSPC   C1A 1181   3.800   6.646   3.972
   85DSPC   C2A 1182   3.974   7.054   3.971
   85DSPC   C3A 1183   3.760   7.436   4.058
   85DSPC   C4A 1184   3.344   0.131   4.108
   85DSPC   C5A 1185   2.936   7.405   4.096
   85DSPC   C1B 1186   3.274   6.645   4.101
   85DSPC   C2B 1187   2.911   6.891   4.189
   85DSPC   C3B 1188   2.640   7.168   4.452
   85DSPC   C4B 1189   2.393   7.333   4.808
   85DSPC   C5B 1190   2.088   0.127   4.959
   86DSPC   NC3 1191   6.776   0.932   3.401
   86DSPC   PO4 1192   6.448   0.704   3.100
   86DSPC   GL1 1193   6.234   1.055   2.929
   86DSPC   GL2 1194   6.527   1.131   2.767
   86DSPC   C1A 1195   5.954   1.336   2.665
   86DSPC   C2A 1196   6.003   1.766   2.450
   86DSPC   C3A 1197   6.210   2.178   2.315
   86DSPC   C4A 1198   6.547   2.502   2.284
   86DSPC   C5A 1199   6.666   2.953   2.345
   86DSPC   C1B 1200   6.833   1.270   2.466
   86DSPC   C2B 1201   6.944   1.706   2.356
   86DSPC   C3B 1202   6.913   2.159   2.197
   86DSPC   C4B 1203   7.046   2.624   2.208
   86DSPC   C5B 1204   7.229   3.016   2.403
   87DSPC   NC3 1205   3.175   2.768   0.133
   87DSPC   PO4 1206   3.338   2.472   7.331
   87DSPC   GL1 1207   2.869   2.282   7.437
   87DSPC   GL2 1208   2.452   2.335   7.466
   87DSPC   C1A 1209   2.616   1.897   7.276
   87DSPC   C2A 1210   2.658   1.444   7.197
   87DSPC   C3A 1211   2.547   1.005   7.336
   87DSPC   C4A 1212   2.374   0.575   7.334
   87DSPC   C5A 1213   1.970   0.433   0.021
   87DSPC   C1B 1214   2.205   1.941   0.059
   87DSPC   C2B 1215   1.816   1.693   0.005
   87DSPC   C3B 1216   1.411   1.465   0.051
   87DSPC   C4B 1217   1.068   1.173   0.037
   87DSPC   C5B 1218   0.826   0.942   0.330
   88DSPC   NC3 1219   0.512   6.648   1.348
   88DSPC   PO4 1220   0.735   6.578   0.915
   88DSPC   GL1 1221   0.703   6.741   0.488
   88DSPC   GL2 1222   0.375   6.829   0.514
   88DSPC   C1A 1223   0.494   6.584   0.093
   88DSPC   C2A 1224   0.140   6.282   0.153
   88DSPC   C3A 1225   7.279   6.161   0.425
   88DSPC   C4A 1226   6.852   6.282   0.432
   88DSPC   C5A 1227   6.667   6.625   0.224
   88DSPC   C1B 1228   0.034   6.577   0.588
   88DSPC   C2B 1229   7.150   6.700   0.454
   88DSPC   C3B 1230   7.037   6.953   0.080
   88DSPC   C4B 1231   6.637   7.123   0.088
   88DSPC   C5B 1232   6.391   7.013   0.461
   89DSPC   NC3 1233   2.117   5.334   5.455
   89DSPC   PO4 1234   2.249   5.729   5.189
   89DSPC   GL1 1235   2.255   6.146   4.934
   89DSPC   GL2 1236   2.166   6.477   5.078
   89DSPC   C1A 1237   2.082   6.411   4.576
   89DSPC   C2A 1238   1.789   6.769   4.493
   89DSPC   C3A 1239   1.414   6.926   4.747
   89DSPC   C4A 1240   1.247   7.040   5.172
   89DSPC   C5A 1241   1.110   7.166   5.589
   89DSPC   C1B 1242   2.104   6.779   5.387
   89DSPC   C2B 1243   2.130   7.232   5.284
   89DSPC   C3B 1244   1.933   0.077   5.463
   89DSPC   C4B 1245   1.773   0.177   5.865
   89DSPC   C5B 1246   1.511   0.335   6.220
   90DSPC   NC3 1247   0.051   7.218   2.405
   90DSPC   PO4 1248   7.124   7.366   2.279
   90DSPC   GL1 1249   7.470   7.435   1.992
   90DSPC   GL2 1250   7.470   7.106   1.893
   90DSPC   C1A 1251   0.415   7.388   1.835
   90DSPC   C2A 1252   0.823   7.133   1.779
   90DSPC   C3A 1253   0.891   6.674   1.901
   90DSPC   C4A 1254   0.861   6.215   2.057
   90DSPC   C5A 1255   0.487   5.967   2.207
   90DSPC   C1B 1256   0.034   6.755   2.163
   90DSPC   C2B 1257   0.034   6.333   2.355
   90DSPC   C3B 1258   7.484   5.953   2.122
   90DSPC   C4B 1259   0.145   5.547   2.122
   90DSPC   C5B 1260   0.105   5.116   2.235
   91DSPC   NC3 1261   5.026   5.289   7.296
   91DSPC   PO4 1262   5.042   5.432   0.236
   91DSPC   GL1 1263   5.088   5.860   0.323
   91DSPC   GL2 1264   4.861   5.852   0.577
   91DSPC   C1A 1265   4.832   6.268   0.297
   91DSPC   C2A 1266   4.567   6.543   0.535
   91DSPC   C3A 1267   4.170   6.630   0.766
   91DSPC   C4A 1268   3.894   6.523   1.114
   91DSPC   C5A 1269   3.959   6.695   1.533
   91DSPC   C1B 1270   4.874   5.860   1.039
   91DSPC   C2B 1271   4.844   6.213   1.340
   91DSPC   C3B 1272   4.699   6.376   1.747
   91DSPC   C4B 1273   4.438   6.310   2.110
   91DSPC   C5B 1274   4.023   6.299   2.293
   92DSPC   NC3 1275   1.494   3.447   0.268
   92DSPC   PO4 1276   1.298   3.092   0.067
   92DSPC   GL1 1277   1.078   2.712   0.060
   92DSPC   GL2 1278   1.307   2.475   7.388
   92DSPC   C1A 1279   0.717   2.413   0.075
   92DSPC   C2A 1280   0.491   2.188   7.190
   92DSPC   C3A 1281   0.587   1.738   7.061
   92DSPC   C4A 1282   0.613   1.373   6.760
   92DSPC   C5A 1283   0.513   1.297   6.298
   92DSPC   C1B 1284   1.354   2.194   7.012
   92DSPC   C2B 1285   1.072   1.807   6.825
   92DSPC   C3B 1286   1.005   1.472   6.458
   92DSPC   C4B 1287   0.955   1.114   6.111
   92DSPC   C5B 1288   0.987   0.841   5.727
   93DSPC   NC3 1289   3.325   0.646   3.937
   93DSPC   PO4 1290   3.063   0.876   4.270
   93DSPC   GL1 1291   3.176   0.473   4.374
   93DSPC   GL2 1292   3.517   0.454   4.470
   93DSPC   C1A 1293   3.072   0.071   4.563
   93DSPC   C2A 1294   3.182   7.139   4.535
   93DSPC   C3A 1295   3.354   6.719   4.644
   93DSPC   C4A 1296   3.605   6.417   4.401
   93DSPC   C5A 1297   4.038   6.301   4.292
   93DSPC   C1B 1298   3.586   7.483   4.539
   93DSPC   C2B 1299   3.706   7.124   4.792
   93DSPC   C3B 1300   4.027   6.849   5.001
   93DSPC   C4B 1301   4.445   6.732   5.108
   93DSPC   C5B 1302   4.837   6.841   4.901
   94DSPC   NC3 1303   4.430   6.891   5.601
   94DSPC   PO4 1304   4.806   6.879   5.877
   94DSPC   GL1 1305   4.699   6.522   6.188
   94DSPC   GL2 1306   4.624   6.142   6.159
   94DSPC   C1A 1307   4.391   6.432   6.526
   94DSPC   C2A 1308   4.357   6.461   6.998
   94DSPC   C3A 1309   4.411   6.238   7.418
   94DSPC   C4A 1310   4.133   5.903   0.067
   94DSPC   C5A 1311   4.004   5.475   0.021
   94DSPC   C1B 1312   4.857   5.746   6.378
   94DSPC   C2B 1313   5.232   5.428   6.482
   94DSPC   C3B 1314   5.296   5.102   6.862
   94DSPC   C4B 1315   5.111   4.790   7.156
   94DSPC   C5B 1316   4.940   4.486   7.468
   95DSPC   NC3 1317   3.161   3.403   6.065
   95DSPC   PO4 1318   2.955   3.768   6.283
   95DSPC   GL1 1319   3.394   3.747   6.289
   95DSPC   GL2 1320   3.432   4.080   6.137
   95DSPC   C1A 1321   3.834   3.812   6.350
   95DSPC   C2A 1322   3.939   4.117   6.621
   95DSPC   C3A 1323   4.278   4.409   6.661
   95DSPC   C4A 1324   4.639   4.550   6.427
   95DSPC   C5A 1325   4.977   4.763   6.160
   95DSPC   C1B 1326   3.528   4.337   5.742
   95DSPC   C2B 1327   3.768   4.737   5.674
   95DSPC   C3B 1328   3.906   5.174   5.649
   95DSPC   C4B 1329   4.171   5.540   5.620
   95DSPC   C5B 1330   4.233   5.934   5.410
   96DSPC   NC3 1331   0.766   2.648   3.138
   96DSPC   PO4 1332   0.873   2.942   3.476
   96DSPC   GL1 1333   0.438   2.795   3.471
   96DSPC   GL2 1334   0.424   2.434   3.505
   96DSPC   C1A 1335   0.006   2.665   3.341
   96DSPC   C2A 1336   7.319   2.293   3.081
   96DSPC   C3A 1337   7.253   1.833   3.157
   96DSPC   C4A 1338   6.980   1.520   3.357
   96DSPC   C5A 1339   6.540   1.368   3.251
   96DSPC   C1B 1340   0.020   2.171   3.536
   96DSPC   C2B 1341   7.431   1.724   3.649
   96DSPC   C3B 1342   7.441   1.365   3.955
   96DSPC   C4B 1343   7.340   0.940   4.115
   96DSPC   C5B 1344   7.052   0.634   4.307
   97DSPC   NC3 1345   0.103   3.952   5.507
   97DSPC   PO4 1346   7.340   3.955   5.947
   97DSPC   GL1 1347   6.914   3.961   6.192
   97DSPC   GL2 1348   6.886   3.939   6.587
   97DSPC   C1A 1349   6.500   3.760   6.316
   97DSPC   C2A 1350   6.052   3.614   6.380
   97DSPC   C3A 1351   5.859   3.316   6.688
   97DSPC   C4A 1352   5.685   3.016   7.014
   97DSPC   C5A 1353   5.794   2.667   7.331
   97DSPC   C1B 1354   6.641   3.566   6.775
   97DSPC   C2B 1355   6.455   3.332   7.135
   97DSPC   C3B 1356   6.162   3.038   7.361
   97DSPC   C4B 1357   6.105   2.783   0.247
   97DSPC   C5B 1358   6.282   2.428   0.506
   98DSPC   NC3 1359   3.733   2.396   3.320
   98DSPC   PO4 1360   3.413   2.297   3.665
   98DSPC   GL1 1361   3.371   2.686   3.419
   98DSPC   GL2 1362   3.339   2.656   3.062
   98DSPC   C1A 1363   3.336   3.120   3.281
   98DSPC   C2A 1364   3.049   3.444   3.095
   98DSPC   C3A 1365   2.773   3.810   3.014
   98DSPC   C4A 1366   2.700   3.997   2.612
   98DSPC   C5A 1367   2.738   3.852   2.167
   98DSPC   C1B 1368   2.988   2.946   2.939
   98DSPC   C2B 1369   2.841   3.040   2.488
   98DSPC   C3B 1370   2.862   3.316   2.100
   98DSPC   C4B 1371   2.772   3.390   1.658
   98DSPC   C5B 1372   2.733   3.402   1.209
   99DSPC   NC3 1373   7.046   7.422   1.778
   99DSPC   PO4 1374   6.949   6.965   1.942
   99DSPC   GL1 1375   6.769   6.514   1.865
   99DSPC   GL2 1376   6.633   6.309   2.149
   99DSPC   C1A 1377   6.839   6.044   1.750
   99DSPC   C2A 1378   7.131   5.680   1.861
   99DSPC   C3A 1379   7.167   5.482   2.287
   99DSPC   C4A 1380   7.455   5.551   2.627
   99DSPC   C5A 1381   0.041   5.377   3.066
   99DSPC   C1B 1382   6.540   5.965   2.479
   99DSPC   C2B 1383   6.665   5.504   2.580
   99DSPC   C3B 1384   6.636   5.078   2.817
   99DSPC   C4B 1385   6.515   4.798   3.196
   99DSPC   C5B 1386   6.329   4.648   3.599
  100DSPC   NC3 1387   6.866   4.830   4.273
  100DSPC   PO4 1388   7.003   5.108   3.941
  100DSPC   GL1 1389   7.479   5.190   4.044
  100DSPC   GL2 1390   0.257   5.043   4.284
  100DSPC   C1A 1391   0.341   5.498   4.108
  100DSPC   C2A 1392   0.782   5.498   4.264
  100DSPC   C3A 1393   1.095   5.830   4.398
  100DSPC   C4A 1394   1.239   6.225   4.657
  100DSPC   C5A 1395   1.194   6.527   5.025
  100DSPC   C1B 1396   0.462   5.308   4.621
  100DSPC   C2B 1397   0.914   5.381   4.759
  100DSPC   C3B 1398   1.111   5.798   4.918
  100DSPC   C4B 1399   1.495   6.039   5.073
  100DSPC   C5B 1400   1.813   6.237   5.355
  101DSPC   NC3 1401   1.712   6.987   3.924
  101DSPC   PO4 1402   1.529   7.369   3.674
  101DSPC   GL1 1403   1.799   0.155   3.815
  101DSPC   GL2 1404   1.932   7.424   4.063
  101DSPC   C1A 1405   1.698   0.612   4.082
  101DSPC   C2A 1406   1.644   1.011   4.154
  101DSPC   C3A 1407   1.364   1.023   4.450
  101DSPC   C4A 1408   1.387   0.858   4.856
  101DSPC   C5A 1409   1.664   0.906   5.162
  101DSPC   C1B 1410   2.267   0.037   4.366
  101DSPC   C2B 1411   2.258   0.447   4.586
  101DSPC   C3B 1412   2.098   0.710   4.947
  101DSPC   C4B 1413   2.110   0.826   5.394
  101DSPC   C5B 1414   2.117   0.565   5.791
  102DSPC   NC3 1415   0.457   1.894   3.604
  102DSPC   PO4 1416   0.639   1.549   3.859
  102DSPC   GL1 1417   0.846   1.168   3.689
  102DSPC   GL2 1418   0.747   0.934   3.902
  102DSPC   C1A 1419   1.047   0.755   3.513
  102DSPC   C2A 1420   1.422   0.473   3.343
  102DSPC   C3A 1421   1.863   0.480   3.517
  102DSPC   C4A 1422   2.060   0.813   3.796
  102DSPC   C5A 1423   2.121   0.850   4.282
  102DSPC   C1B 1424   1.168   0.812   4.028
  102DSPC   C2B 1425   1.288   0.520   4.353
  102DSPC   C3B 1426   1.354   0.356   4.767
  102DSPC   C4B 1427   1.674   0.396   5.073
  102DSPC   C5B 1428   1.697   0.529   5.502
  103DSPC   NC3 1429   5.405   6.977   0.860
  103DSPC   PO4 1430   4.949   7.045   0.830
  103DSPC   GL1 1431   4.512   6.958   0.752
  103DSPC   GL2 1432   4.589   7.035   0.423
  103DSPC   C1A 1433   4.093   7.106   0.593
  103DSPC   C2A 1434   3.834   7.448   0.417
  103DSPC   C3A 1435   3.665   0.033   0.004
  103DSPC   C4A 1436   3.772   7.391   7.085
  103DSPC   C5A 1437   3.837   7.154   6.708
  103DSPC   C1B 1438   4.304   6.802   0.185
  103DSPC   C2B 1439   4.034   6.581   7.403
  103DSPC   C3B 1440   3.936   6.213   7.162
  103DSPC   C4B 1441   4.004   6.137   6.702
  103DSPC   C5B 1442   4.253   5.866   6.408
  104DSPC   NC3 1443   2.017   0.481   2.583
  104DSPC   PO4 1444   1.735   0.127   2.470
  104DSPC   GL1 1445   2.015   0.041   2.805
  104DSPC   GL2 1446   1.854   0.264   3.040
  104DSPC   C1A 1447   2.067   7.350   3.229
  104DSPC   C2A 1448   2.198   0.039   3.614
  104DSPC   C3A 1449   2.384   0.442   3.546
  104DSPC   C4A 1450   2.432   0.899   3.492
  104DSPC   C5A 1451   2.174   1.263   3.599
  104DSPC   C1B 1452   1.670   0.678   2.954
  104DSPC   C2B 1453   1.369   0.975   3.173
  104DSPC   C3B 1454   0.975   1.242   3.248
  104DSPC   C4B 1455   0.722   1.653   3.197
  104DSPC   C5B 1456   0.719   2.127   3.205
  105DSPC   NC3 1457   4.580   3.190   1.140
  105DSPC   PO4 1458   4.742   3.528   1.385
  105DSPC   GL1 1459   4.762   3.792   0.984
  105DSPC   GL2 1460   4.580   4.125   0.909
  105DSPC   C1A 1461   5.055   4.072   0.727
  105DSPC   C2A 1462   5.112   4.484   0.539
  105DSPC   C3A 1463   4.822   4.783   0.370
  105DSPC   C4A 1464   4.497   5.059   0.473
  105DSPC   C5A 1465   4.392   5.505   0.355
  105DSPC   C1B 1466   4.680   4.593   0.819
  105DSPC   C2B 1467   4.486   4.994   1.000
  105DSPC   C3B 1468   4.377   5.421   1.228
  105DSPC   C4B 1469   4.371   5.899   1.290
  105DSPC   C5B 1470   4.334   6.363   1.367
  106DSPC   NC3 1471   4.821   3.863   5.222
  106DSPC   PO4 1472   4.747   3.418   5.333
  106DSPC   GL1 1473   4.997   3.457   5.692
  106DSPC   GL2 1474   5.234   3.619   5.505
  106DSPC   C1A 1475   5.287   3.441   6.023
  106DSPC   C2A 1476   5.667   3.278   6.195
  106DSPC   C3A 1477   6.049   3.288   5.947
  106DSPC   C4A 1478   6.101   3.526   5.560
  106DSPC   C5A 1479   6.421   3.800   5.443
  106DSPC   C1B 1480   5.660   3.776   5.410
  106DSPC   C2B 1481   5.987   4.065   5.533
  106DSPC   C3B 1482   6.365   4.295   5.399
  106DSPC   C4B 1483   6.742   4.379   5.158
  106DSPC   C5B 1484   7.044   4.246   4.860
  107DSPC   NC3 1485   7.106   6.605   1.541
  107DSPC   PO4 1486   7.182   7.025   1.481
  107DSPC   GL1 1487   0.065   6.758   1.565
  107DSPC   GL2 1488   0.169   6.445   1.787
  107DSPC   C1A 1489   0.411   6.867   1.821
  107DSPC   C2A 1490   0.520   7.023   2.217
  107DSPC   C3A 1491   0.559   7.232   2.640
  107DSPC   C4A 1492   0.752   7.355   3.068
  107DSPC   C5A 1493   0.873   7.230   3.507
  107DSPC   C1B 1494   0.469   6.498   2.168
  107DSPC   C2B 1495   0.671   6.307   2.552
  107DSPC   C3B 1496   0.806   6.120   2.973
  107DSPC   C4B 1497   0.928   5.910   3.385
  107DSPC   C5B 1498   0.892   5.809   3.859
  108DSPC   NC3 1499   6.430   3.834   7.346
  108DSPC   PO4 1500   6.013   3.659   0.010
  108DSPC   GL1 1501   6.441   3.498   0.199
  108DSPC   GL2 1502   6.643   3.775   0.337
  108DSPC   C1A 1503   6.796   3.317   0.517
  108DSPC   C2A 1504   7.093   3.220   0.896
  108DSPC   C3A 1505   0.036   3.334   0.978
  108DSPC   C4A 1506   0.476   3.451   0.896
  108DSPC   C5A 1507   0.882   3.683   0.966
  108DSPC   C1B 1508   7.012   3.788   0.637
  108DSPC   C2B 1509   7.273   4.150   0.728
  108DSPC   C3B 1510   0.205   4.262   0.767
  108DSPC   C4B 1511   0.617   4.356   0.798
  108DSPC   C5B 1512   0.923   4.191   1.061
  109DSPC   NC3 1513   0.032   4.404   3.614
  109DSPC   PO4 1514   7.437   4.782   3.394
  109DSPC   GL1 1515   0.073   4.889   3.000
  109DSPC   GL2 1516   0.409   4.789   3.037
  109DSPC   C1A 1517   0.312   5.168   2.700
  109DSPC   C2A 1518   0.463   5.560   2.530
  109DSPC   C3A 1519   0.854   5.801   2.569
  109DSPC   C4A 1520   1.245   5.841   2.847
  109DSPC   C5A 1521   1.730   5.819   2.918
  109DSPC   C1B 1522   0.882   4.844   3.037
  109DSPC   C2B 1523   1.301   5.032   2.832
  109DSPC   C3B 1524   1.743   5.190   2.650
  109DSPC   C4B 1525   2.197   5.329   2.644
  109DSPC   C5B 1526   2.539   5.220   2.934
  110DSPC   NC3 1527   0.588   3.919   5.202
  110DSPC   PO4 1528   0.638   4.207   4.858
  110DSPC   GL1 1529   0.816   3.943   4.589
  110DSPC   GL2 1530   0.986   3.768   4.870
  110DSPC   C1A 1531   1.219   3.873   4.417
  110DSPC   C2A 1532   1.660   3.786   4.558
  110DSPC   C3A 1533   2.097   3.686   4.695
  110DSPC   C4A 1534   2.454   3.393   4.631
  110DSPC   C5A 1535   2.720   3.047   4.433
  110DSPC   C1B 1536   1.322   3.442   4.705
  110DSPC   C2B 1537   1.390   2.973   4.636
  110DSPC   C3B 1538   1.592   2.580   4.432
  110DSPC   C4B 1539   1.976   2.383   4.254
  110DSPC   C5B 1540   2.353   2.156   4.082
  111DSPC   NC3 1541   3.669   2.216   0.111
  111DSPC   PO4 1542   3.217   2.266   0.287
  111DSPC   GL1 1543   3.541   2.594   0.373
  111DSPC   GL2 1544   3.696   2.751   0.082
  111DSPC   C1A 1545   3.787   2.952   0.544
  111DSPC   C2A 1546   3.856   3.390   0.610
  111DSPC   C3A 1547   3.894   3.816   0.558
  111DSPC   C4A 1548   4.238   4.002   0.434
  111DSPC   C5A 1549   4.483   3.890   0.066
  111DSPC   C1B 1550   3.756   2.962   7.183
  111DSPC   C2B 1551   3.939   3.339   7.104
  111DSPC   C3B 1552   4.096   3.761   7.029
  111DSPC   C4B 1553   4.365   3.871   6.661
  111DSPC   C5B 1554   4.365   4.066   6.263
  112DSPC   NC3 1555   0.474   3.011   1.695
  112DSPC   PO4 1556   0.806   3.111   1.360
  112DSPC   GL1 1557   0.343   3.132   1.259
  112DSPC   GL2 1558   0.069   3.252   1.478
  112DSPC   C1A 1559   7.457   2.868   1.130
  112DSPC   C2A 1560   7.042   2.680   1.206
  112DSPC   C3A 1561   6.937   2.300   1.476
  112DSPC   C4A 1562   6.576   2.318   1.812
  112DSPC   C5A 1563   6.125   2.469   1.909
  112DSPC   C1B 1564   7.126   3.135   1.447
  112DSPC   C2B 1565   6.660   3.124   1.576
  112DSPC   C3B 1566   6.474   2.846   1.901
  112DSPC   C4B 1567   6.160   2.812   2.273
  112DSPC   C5B 1568   5.775   3.034   2.360
  113DSPC   NC3 1569   4.535   3.481   5.792
  113DSPC   PO4 1570   4.826   3.886   5.733
  113DSPC   GL1 1571   5.159   4.079   5.456
  113DSPC   GL2 1572   5.010   4.364   5.263
  113DSPC   C1A 1573   5.327   3.910   5.051
  113DSPC   C2A 1574   5.608   4.043   4.708
  113DSPC   C3A 1575   5.564   4.384   4.425
  113DSPC   C4A 1576   5.494   4.833   4.399
  113DSPC   C5A 1577   5.204   5.141   4.592
  113DSPC   C1B 1578   4.663   4.737   5.298
  113DSPC   C2B 1579   4.305   5.105   5.297
  113DSPC   C3B 1580   4.135   5.524   5.114
  113DSPC   C4B 1581   4.257   5.942   4.906
  113DSPC   C5B 1582   4.179   6.398   4.798
  114DSPC   NC3 1583   2.705   1.430   3.664
  114DSPC   PO4 1584   2.489   1.813   3.511
  114DSPC   GL1 1585   2.576   2.246   3.439
  114DSPC   GL2 1586   2.600   2.311   3.081
  114DSPC   C1A 1587   2.621   2.713   3.416
  114DSPC   C2A 1588   2.970   2.895   3.627
  114DSPC   C3A 1589   3.374   2.973   3.798
  114DSPC   C4A 1590   3.756   2.906   3.539
  114DSPC   C5A 1591   3.816   2.861   3.080
  114DSPC   C1B 1592   2.920   2.476   2.771
  114DSPC   C2B 1593   3.253   2.743   2.543
  114DSPC   C3B 1594   3.339   3.067   2.200
  114DSPC   C4B 1595   3.634   3.385   1.956
  114DSPC   C5B 1596   3.705   3.347   1.482
  115DSPC   NC3 1597   0.272   3.912   1.630
  115DSPC   PO4 1598   0.508   3.503   1.565
  115DSPC   GL1 1599   0.246   3.645   1.247
  115DSPC   GL2 1600   0.442   3.905   1.109
  115DSPC   C1A 1601   7.460   3.998   1.174
  115DSPC   C2A 1602   7.423   4.466   1.151
  115DSPC   C3A 1603   7.335   4.914   1.307
  115DSPC   C4A 1604   7.334   5.348   1.517
  115DSPC   C5A 1605   0.105   5.715   1.642
  115DSPC   C1B 1606   0.423   4.305   1.271
  115DSPC   C2B 1607   0.704   4.671   1.227
  115DSPC   C3B 1608   0.863   5.127   1.145
  115DSPC   C4B 1609   1.016   5.593   1.103
  115DSPC   C5B 1610   1.174   6.057   1.095
  116DSPC   NC3 1611   4.698   5.800   0.065
  116DSPC   PO4 1612   5.102   5.787   7.330
  116DSPC   GL1 1613   5.240   5.558   6.946
  116DSPC   GL2 1614   4.884   5.452   6.829
  116DSPC   C1A 1615   5.681   5.396   6.744
  116DSPC   C2A 1616   5.902   4.973   6.699
  116DSPC   C3A 1617   6.009   4.507   6.825
  116DSPC   C4A 1618   5.841   4.182   7.111
  116DSPC   C5A 1619   5.430   3.989   7.272
  116DSPC   C1B 1620   4.900   5.049   6.574
  116DSPC   C2B 1621   5.073   4.638   6.664
  116DSPC   C3B 1622   5.170   4.312   6.966
  116DSPC   C4B 1623   5.130   3.870   6.861
  116DSPC   C5B 1624   4.855   3.562   6.689
  117DSPC   NC3 1625   1.343   5.134   6.570
  117DSPC   PO4 1626   1.656   4.927   6.385
  117DSPC   GL1 1627   1.293   5.015   6.087
  117DSPC   GL2 1628   1.098   5.312   6.160
  117DSPC   C1A 1629   1.041   4.775   5.779
  117DSPC   C2A 1630   0.642   4.786   5.589
  117DSPC   C3A 1631   0.221   4.841   5.473
  117DSPC   C4A 1632   7.488   4.727   5.075
  117DSPC   C5A 1633   7.470   4.938   4.677
  117DSPC   C1B 1634   0.966   5.667   5.894
  117DSPC   C2B 1635   0.703   5.705   5.520
  117DSPC   C3B 1636   0.609   5.638   5.077
  117DSPC   C4B 1637   0.661   5.819   4.667
  117DSPC   C5B 1638   0.569   5.965   4.243
  118DSPC   NC3 1639   2.642   5.591   2.554
  118DSPC   PO4 1640   2.969   5.474   2.236
  118DSPC   GL1 1641   2.848   5.149   2.559
  118DSPC   GL2 1642   2.549   4.973   2.494
  118DSPC   C1A 1643   2.896   4.702   2.744
  118DSPC   C2A 1644   3.111   4.272   2.776
  118DSPC   C3A 1645   3.183   3.818   2.714
  118DSPC   C4A 1646   2.867   3.527   2.586
  118DSPC   C5A 1647   2.457   3.486   2.388
  118DSPC   C1B 1648   2.532   4.713   2.116
  118DSPC   C2B 1649   2.592   4.291   1.920
  118DSPC   C3B 1650   2.316   3.946   1.871
  118DSPC   C4B 1651   2.328   3.483   1.873
  118DSPC   C5B 1652   2.322   3.207   1.474
  119DSPC   NC3 1653   7.020   4.751   5.394
  119DSPC   PO4 1654   6.835   4.533   5.788
  119DSPC   GL1 1655   6.613   4.124   5.848
  119DSPC   GL2 1656   6.858   3.895   5.707
  119DSPC   C1A 1657   6.197   3.894   5.948
  119DSPC   C2A 1658   5.756   3.708   5.909
  119DSPC   C3A 1659   5.623   3.323   5.658
  119DSPC   C4A 1660   5.904   3.049   5.427
  119DSPC   C5A 1661   6.263   2.756   5.403
  119DSPC   C1B 1662   7.115   3.599   5.431
  119DSPC   C2B 1663   7.278   3.201   5.211
  119DSPC   C3B 1664   7.424   2.770   5.086
  119DSPC   C4B 1665   0.101   2.348   4.926
  119DSPC   C5B 1666   0.060   1.871   4.892
  120DSPC   NC3 1667   1.804   5.744   6.881
  120DSPC   PO4 1668   1.752   5.443   6.500
  120DSPC   GL1 1669   1.571   5.339   6.119
  120DSPC   GL2 1670   1.524   5.651   5.971
  120DSPC   C1A 1671   1.289   5.308   5.697
  120DSPC   C2A 1672   0.872   5.232   5.666
  120DSPC   C3A 1673   0.659   5.085   5.998
  120DSPC   C4A 1674   0.386   4.758   6.044
  120DSPC   C5A 1675   7.462   4.692   5.927
  120DSPC   C1B 1676   1.286   6.057   5.903
  120DSPC   C2B 1677   0.880   6.177   5.686
  120DSPC   C3B 1678   0.503   6.452   5.748
  120DSPC   C4B 1679   0.110   6.474   6.020
  120DSPC   C5B 1680   7.203   6.591   6.237
  121DSPC   NC3 1681   2.004   3.625   4.176
  121DSPC   PO4 1682   1.895   3.177   4.266
  121DSPC   GL1 1683   1.903   2.896   4.611
  121DSPC   GL2 1684   2.260   2.905   4.636
  121DSPC   C1A 1685   2.022   2.475   4.757
  121DSPC   C2A 1686   2.275   2.130   4.584
  121DSPC   C3A 1687   2.653   1.926   4.696
  121DSPC   C4A 1688   3.054   1.880   4.510
  121DSPC   C5A 1689   3.504   1.804   4.466
  121DSPC   C1B 1690   2.465   2.578   4.380
  121DSPC   C2B 1691   2.821   2.290   4.308
  121DSPC   C3B 1692   3.310   2.281   4.343
  121DSPC   C4B 1693   3.777   2.220   4.499
  121DSPC   C5B 1694   4.095   2.433   4.764
  122DSPC   NC3 1695   6.590   1.241   4.338
  122DSPC   PO4 1696   6.769   1.154   3.900
  122DSPC   GL1 1697   7.066   1.286   4.271
  122DSPC   GL2 1698   7.045   1.069   4.575
  122DSPC   C1A 1699   7.292   1.483   4.663
  122DSPC   C2A 1700   7.177   1.561   5.117
  122DSPC   C3A 1701   7.202   1.395   5.569
  122DSPC   C4A 1702   7.156   1.221   6.029
  122DSPC   C5A 1703   7.218   0.984   6.461
  122DSPC   C1B 1704   7.286   1.071   5.031
  122DSPC   C2B 1705   0.121   1.098   5.434
  122DSPC   C3B 1706   0.487   1.017   5.806
  122DSPC   C4B 1707   0.569   0.787   6.253
  122DSPC   C5B 1708   0.709   0.477   6.591
  123DSPC   NC3 1709   5.804   2.042   2.002
  123DSPC   PO4 1710   6.125   1.818   1.762
  123DSPC   GL1 1711   6.337   1.436   1.886
  123DSPC   GL2 1712   6.474   1.271   1.601
  123DSPC   C1A 1713   6.288   0.988   1.982
  123DSPC   C2A 1714   6.221   0.546   1.958
  123DSPC   C3A 1715   5.898   0.184   1.932
  123DSPC   C4A 1716   5.562   7.344   1.821
  123DSPC   C5A 1717   5.402   6.900   1.899
  123DSPC   C1B 1718   6.563   0.791   1.595
  123DSPC   C2B 1719   6.814   0.382   1.532
  123DSPC   C3B 1720   7.074   0.124   1.239
  123DSPC   C4B 1721   7.083   7.499   0.788
  123DSPC   C5B 1722   6.908   7.154   0.531
  124DSPC   NC3 1723   1.991   3.072   0.776
  124DSPC   PO4 1724   1.682   3.003   0.415
  124DSPC   GL1 1725   1.942   3.336   0.382
  124DSPC   GL2 1726   2.293   3.253   0.381
  124DSPC   C1A 1727   2.053   3.620   0.066
  124DSPC   C2A 1728   2.389   3.785   7.316
  124DSPC   C3A 1729   2.798   3.942   7.425
  124DSPC   C4A 1730   3.011   4.332   7.466
  124DSPC   C5A 1731   3.246   4.706   7.365
  124DSPC   C1B 1732   2.623   3.569   0.238
  124DSPC   C2B 1733   3.087   3.542   0.050
  124DSPC   C3B 1734   3.449   3.244   7.474
  124DSPC   C4B 1735   3.904   3.244   0.107
  124DSPC   C5B 1736   4.337   3.388   7.393
  125DSPC   NC3 1737   1.223   3.104   0.582
  125DSPC   PO4 1738   1.594   3.391   0.751
  125DSPC   GL1 1739   2.013   3.584   0.783
  125DSPC   GL2 1740   2.257   3.449   1.022
  125DSPC   C1A 1741   2.184   3.974   1.027
  125DSPC   C2A 1742   2.375   4.226   1.404
  125DSPC   C3A 1743   2.191   4.521   1.729
  125DSPC   C4A 1744   2.134   4.378   2.152
  125DSPC   C5A 1745   2.258   3.995   2.376
  125DSPC   C1B 1746   2.378   3.706   1.418
  125DSPC   C2B 1747   2.765   3.886   1.620
  125DSPC   C3B 1748   3.131   3.703   1.866
  125DSPC   C4B 1749   3.276   3.561   2.283
  125DSPC   C5B 1750   3.302   3.272   2.671
  126DSPC   NC3 1751   2.132   2.818   1.777
  126DSPC   PO4 1752   2.603   2.743   1.844
  126DSPC   GL1 1753   2.430   2.765   1.411
  126DSPC   GL2 1754   2.090   2.791   1.227
  126DSPC   C1A 1755   2.523   2.964   1.023
  126DSPC   C2A 1756   2.384   2.739   0.702
  126DSPC   C3A 1757   2.043   2.418   0.642
  126DSPC   C4A 1758   1.602   2.378   0.454
  126DSPC   C5A 1759   1.181   2.376   0.345
  126DSPC   C1B 1760   1.696   2.650   0.963
  126DSPC   C2B 1761   1.237   2.619   0.789
  126DSPC   C3B 1762   0.850   2.715   0.503
  126DSPC   C4B 1763   0.420   2.762   0.363
  126DSPC   C5B 1764   0.038   2.507   0.327
  127DSPC   NC3 1765   4.897   6.683   5.419
  127DSPC   PO4 1766   4.628   6.420   5.709
  127DSPC   GL1 1767   4.339   6.652   5.987
  127DSPC   GL2 1768   4.095   6.456   6.105
  127DSPC   C1A 1769   4.402   6.926   6.370
  127DSPC   C2A 1770   4.604   7.344   6.437
  127DSPC   C3A 1771   4.451   0.253   6.311
  127DSPC   C4A 1772   4.012   0.371   6.341
  127DSPC   C5A 1773   3.669   0.103   6.520
  127DSPC   C1B 1774   3.910   6.831   6.327
  127DSPC   C2B 1775   3.649   7.192   6.182
  127DSPC   C3B 1776   3.185   7.273   6.152
  127DSPC   C4B 1777   2.744   7.370   5.953
  127DSPC   C5B 1778   2.318   0.064   5.813
  128DSPC   NC3 1779   1.789   3.159   7.449
  128DSPC   PO4 1780   1.950   3.237   7.032
  128DSPC   GL1 1781   2.173   2.876   6.985
  128DSPC   GL2 1782   2.063   2.607   7.202
  128DSPC   C1A 1783   2.606   2.973   6.906
  128DSPC   C2A 1784   2.901   3.265   6.724
  128DSPC   C3A 1785   3.348   3.296   6.591
  128DSPC   C4A 1786   3.790   3.132   6.670
  128DSPC   C5A 1787   4.183   2.936   6.886
  128DSPC   C1B 1788   2.432   2.484   6.976
  128DSPC   C2B 1789   2.818   2.258   6.972
  128DSPC   C3B 1790   3.098   1.904   7.120
  128DSPC   C4B 1791   3.520   1.808   7.287
  128DSPC   C5B 1792   3.907   1.620   7.442
  129W        W 1793   3.165   2.218   0.652
  130W        W 1794   1.477   3.201   3.141
  131W        W 1795   0.126   0.762   3.104
  132W        W 1796   1.644   1.445   1.647
  133W        W 1797   0.049   1.746   1.819
  134W        W 1798   1.085   1.718   3.011
  135W        W 1799   0.972   2.945   1.710
  136W        W 1800   1.313   1.274   2.069
  137W        W 1801   1.662   1.867   3.048
  138W        W 1802   2.887   0.816   2.023
  139W        W 1803   3.172   0.769   0.118
  140W        W 1804   0.697   0.329   2.471
  141W        W 1805   1.899   2.601   2.372
  142W        W 1806   1.705   0.931   1.571
  143W        W 1807   2.078   0.467   1.003
  144W        W 1808   0.106   0.660   1.285
  145W        W 1809   0.106   3.018   2.172
  146W        W 1810   3.521   0.117   1.661
  147W        W 1811   2.246   2.161   2.736
  148W        W 1812   1.123   2.127   2.515
  149W        W 1813   2.204   1.881   0.997
  150W        W 1814   2.343   0.249   3.247
  151W        W 1815   3.371   1.332   0.901
  152W        W 1816   1.114   3.549   3.372
  153W        W 1817   1.953   1.396   3.043
  154W        W 1818   2.120   0.006   1.795
  155W        W 1819   0.286   2.109   2.632
  156W        W 1820   3.339   0.899   2.210
  157W        W 1821   1.976   3.246   2.977
  158W        W 1822   1.754   1.788   1.243
  159W        W 1823   1.755   2.134   2.578
  160W        W 1824   1.972   1.020   2.023
  161W        W 1825   2.083   1.983   1.652
  162W        W 1826   3.117   1.838   2.970
  163W        W 1827   2.399   0.763   2.606
  164W        W 1828   1.606   3.471   2.667
  165W        W 1829   0.077   1.065   2.472
  166W        W 1830   1.489   3.301   1.098
  167W        W 1831   1.478   2.272   2.125
  168W        W 1832   1.464   2.795   1.980
  169W        W 1833   0.016   2.044   2.194
  170W        W 1834   2.696   0.234   2.872
  171W        W 1835   1.211   0.814   1.989
  172W        W 1836   0.637   0.770   1.387
  173W        W 1837   2.470   1.682   1.768
  174W        W 1838   2.750   1.481   2.167
  175W        W 1839   1.955   2.155   2.101
  176W        W 1840   2.097   0.550   1.561
  177W        W 1841   3.576   0.828   0.829
  178W        W 1842   0.487   2.643   2.392
  179W        W 1843   2.808   0.389   0.843
  180W        W 1844   1.318   0.205   1.104
  181W        W 1845   2.377   0.282   0.609
  182W        W 1846   0.322   0.214   2.186
  183W        W 1847   0.370   1.177   1.556
  184W        W 1848   1.854   1.004   2.836
  185W        W 1849   0.002   0.694   0.314
  186W        W 1850   0.788   2.083   2.875
  187W        W 1851   2.146   1.481   2.054
  188W        W 1852   1.406   1.750   2.598
  189W        W 1853   3.572   1.719   2.851
  190W        W 1854   0.799   0.809   3.119
  191W        W 1855   2.809   2.072   2.114
  192W        W 1856   1.528   1.557   3.538
  193W        W 1857   2.635   2.820   2.163
  194W        W 1858   0.910   0.850   2.379
  195W        W 1859   0.880   0.198   1.489
  196W        W 1860   2.501   1.040   2.181
  197W        W 1861   3.297   2.153   1.880
  198W        W 1862   1.192   3.517   2.385
  199W        W 1863   2.418   1.801   2.350
  200W        W 1864   1.229   1.131   1.563
  201W        W 1865   1.235   1.000   2.862
  202W        W 1866   1.214   3.466   1.478
  203W        W 1867   2.381   1.705   2.971
  204W        W 1868   0.497   0.377   2.954
  205W        W 1869   0.836   1.400   2.007
  206W        W 1870   0.008   2.973   2.674
  207W        W 1871   0.322   3.375   2.440
  208W        W 1872   3.117   1.601   0.548
  209W        W 1873   2.886   1.058   2.475
  210W        W 1874   3.637   2.500   2.503
  211W        W 1875   2.041   3.640   2.513
  212W        W 1876   0.112   2.528   2.021
  213W        W 1877   2.163   0.955   1.225
  214W        W 1878   2.368   2.365   2.347
  215W        W 1879   0.522   2.970   2.782
  216W        W 1880   1.124   1.592   1.680
  217W        W 1881   1.567   0.416   1.508
  218W        W 1882   2.052   3.254   3.469
  219W        W 1883   0.757   3.602   2.080
  220W        W 1884   2.146   1.491   1.467
  221W        W 1885   0.402   2.001   0.729
  222W        W 1886   0.287   0.544   1.728
  223W        W 1887   3.145   2.627   1.952
  224W        W 1888   0.300   3.378   1.865
  225W        W 1889   0.211   1.266   0.832
  226W        W 1890   2.665   1.582   3.374
  227W        W 1891   1.008   1.863   2.083
  228W        W 1892   2.482   0.149   1.203
  229W        W 1893   1.613   3.580   1.706
  230W        W 1894   2.430   2.171   1.348
  231W        W 1895   1.940   1.719   2.690
  232W        W 1896   2.761   2.060   2.587
  233W        W 1897   2.533   3.440   3.398
  234W        W 1898   1.708   2.953   2.679
  235W        W 1899   2.048   2.551   3.504
  236W        W 1900   1.398   2.531   3.468
  237W        W 1901   1.213   3.294   3.849
  238W        W 1902   1.477   3.201   6.785
  239W        W 1903   2.801   0.735   7.098
  240W        W 1904   0.266   3.146   7.244
  241W        W 1905   1.788   2.536   3.976
  242W        W 1906   3.572   1.069   5.405
  243W        W 1907   0.690   2.218   5.892
  244W        W 1908   2.093   2.634   6.488
  245W        W 1909   1.662   1.867   6.692
  246W        W 1910   2.903   2.793   6.813
  247W        W 1911   1.011   2.633   5.810
  248W        W 1912   3.474   2.416   5.100
  249W        W 1913   2.887   0.816   5.667
  250W        W 1914   3.637   1.570   6.068
  251W        W 1915   1.604   3.277   5.821
  252W        W 1916   3.378   2.743   4.259
  253W        W 1917   1.899   2.601   6.016
  254W        W 1918   0.106   0.660   4.929
  255W        W 1919   2.892   1.267   5.403
  256W        W 1920   0.106   3.018   5.816
  257W        W 1921   0.897   2.590   6.296
  258W        W 1922   0.740   1.989   3.773
  259W        W 1923   3.619   2.869   4.896
  260W        W 1924   2.246   2.161   6.380
  261W        W 1925   0.012   1.712   4.586
  262W        W 1926   0.422   0.094   5.196
  263W        W 1927   3.362   2.550   7.013
  264W        W 1928   2.592   0.655   4.879
  265W        W 1929   3.004   0.850   4.600
  266W        W 1930   1.040   0.085   4.251
  267W        W 1931   3.508   0.184   6.133
  268W        W 1932   0.732   0.909   5.502
  269W        W 1933   0.286   2.109   6.276
  270W        W 1934   2.145   3.302   4.982
  271W        W 1935   3.339   0.899   5.854
  272W        W 1936   1.976   3.246   6.621
  273W        W 1937   1.972   1.020   5.667
  274W        W 1938   2.754   2.694   5.332
  275W        W 1939   2.964   1.771   5.363
  276W        W 1940   3.117   1.838   6.614
  277W        W 1941   1.398   2.900   5.162
  278W        W 1942   2.405   3.433   6.486
  279W        W 1943   1.606   3.471   6.311
  280W        W 1944   3.094   1.744   6.078
  281W        W 1945   2.950   0.305   5.140
  282W        W 1946   2.670   3.587   5.468
  283W        W 1947   2.082   3.235   5.808
  284W        W 1948   1.478   2.272   5.769
  285W        W 1949   3.248   2.995   5.895
  286W        W 1950   1.464   2.795   5.624
  287W        W 1951   2.596   0.201   5.953
  288W        W 1952   1.720   1.862   3.996
  289W        W 1953   2.696   0.234   6.516
  290W        W 1954   1.284   2.246   6.625
  291W        W 1955   0.790   2.297   4.191
  292W        W 1956   2.750   1.481   5.811
  293W        W 1957   0.070   3.417   6.504
  294W        W 1958   1.424   2.556   6.225
  295W        W 1959   0.206   2.665   4.483
  296W        W 1960   1.414   0.295   7.111
  297W        W 1961   2.123   0.437   6.467
  298W        W 1962   0.370   1.177   5.200
  299W        W 1963   3.052   0.471   6.036
  300W        W 1964   0.740   0.432   5.540
  301W        W 1965   0.002   0.694   3.958
  302W        W 1966   0.788   2.083   6.519
  303W        W 1967   1.406   1.750   6.242
  304W        W 1968   3.174   0.109   6.504
  305W        W 1969   3.560   1.919   4.181
  306W        W 1970   3.610   0.430   7.109
  307W        W 1971   3.328   1.358   5.730
  308W        W 1972   3.359   0.794   6.423
  309W        W 1973   1.031   2.736   4.376
  310W        W 1974   2.635   2.820   5.807
  311W        W 1975   0.880   0.198   5.133
  312W        W 1976   2.501   1.040   5.825
  313W        W 1977   1.299   2.211   4.025
  314W        W 1978   0.624   2.911   6.947
  315W        W 1979   0.879   2.106   5.279
  316W        W 1980   1.192   3.517   6.029
  317W        W 1981   2.418   1.801   5.994
  318W        W 1982   1.377   0.100   6.628
  319W        W 1983   3.083   2.902   5.086
  320W        W 1984   2.585   2.546   6.394
  321W        W 1985   1.214   3.466   5.122
  322W        W 1986   0.531   3.425   6.756
  323W        W 1987   2.381   1.705   6.615
  324W        W 1988   0.836   1.400   5.651
  325W        W 1989   0.008   2.973   6.318
  326W        W 1990   1.593   1.682   5.761
  327W        W 1991   0.551   1.523   4.647
  328W        W 1992   2.648   2.726   4.841
  329W        W 1993   2.821   0.451   3.933
  330W        W 1994   3.637   2.500   6.147
  331W        W 1995   2.041   3.640   6.157
  332W        W 1996   0.522   2.970   6.426
  333W        W 1997   0.818   1.990   4.716
  334W        W 1998   1.697   1.351   3.952
  335W        W 1999   1.633   0.542   6.435
  336W        W 2000   0.925   3.178   6.677
  337W        W 2001   0.402   2.001   4.373
  338W        W 2002   0.287   0.544   5.372
  339W        W 2003   1.835   2.509   5.429
  340W        W 2004   3.145   2.627   5.596
  341W        W 2005   1.218   3.215   4.338
  342W        W 2006   0.211   1.266   4.476
  343W        W 2007   2.482   0.149   4.847
  344W        W 2008   2.411   3.191   5.398
  345W        W 2009   2.119   2.166   3.815
  346W        W 2010   1.324   0.742   6.936
  347W        W 2011   3.236   2.821   6.454
  348W        W 2012   1.940   1.719   6.334
  349W        W 2013   0.444   1.774   5.881
  350W        W 2014   2.761   2.060   6.231
  351W        W 2015   2.706   3.233   5.000
  352W        W 2016   1.708   2.953   6.323
  353W        W 2017   2.998   2.479   6.011
  354W        W 2018   2.999   2.263   5.132
  355W        W 2019   0.084   7.239   3.359
  356W        W 2020   0.460   6.132   2.882
  357W        W 2021   3.165   5.862   0.652
  358W        W 2022   1.802   5.753   0.786
  359W        W 2023   1.788   6.180   0.332
  360W        W 2024   3.572   4.713   1.761
  361W        W 2025   3.336   5.756   2.620
  362W        W 2026   2.190   6.428   2.016
  363W        W 2027   0.049   5.390   1.819
  364W        W 2028   3.356   5.145   3.265
  365W        W 2029   1.681   5.795   3.570
  366W        W 2030   1.662   5.511   3.048
  367W        W 2031   3.637   5.214   2.424
  368W        W 2032   1.604   6.921   2.177
  369W        W 2033   3.320   4.991   2.746
  370W        W 2034   2.725   5.413   1.205
  371W        W 2035   1.705   4.575   1.571
  372W        W 2036   1.691   6.878   0.544
  373W        W 2037   0.395   4.666   0.308
  374W        W 2038   1.846   4.606   0.748
  375W        W 2039   0.012   5.356   0.942
  376W        W 2040   1.838   4.270   3.276
  377W        W 2041   2.193   4.419   0.454
  378W        W 2042   2.792   4.361   2.965
  379W        W 2043   2.985   5.433   3.639
  380W        W 2044   1.383   4.726   0.611
  381W        W 2045   3.004   4.494   0.956
  382W        W 2046   3.469   6.634   1.739
  383W        W 2047   3.508   3.828   2.489
  384W        W 2048   2.446   5.673   3.486
  385W        W 2049   3.339   4.543   2.210
  386W        W 2050   1.754   5.432   1.243
  387W        W 2051   1.755   5.778   2.578
  388W        W 2052   1.972   4.664   2.023
  389W        W 2053   3.117   5.482   2.970
  390W        W 2054   3.468   7.100   2.116
  391W        W 2055   1.398   6.544   1.518
  392W        W 2056   3.303   4.069   1.133
  393W        W 2057   2.937   4.504   1.490
  394W        W 2058   3.348   4.655   3.267
  395W        W 2059   2.233   6.354   1.485
  396W        W 2060   1.110   5.365   0.765
  397W        W 2061   1.594   4.352   1.068
  398W        W 2062   2.082   6.879   2.164
  399W        W 2063   1.478   5.916   2.125
  400W        W 2064   3.248   6.639   2.251
  401W        W 2065   1.464   6.439   1.980
  402W        W 2066   1.720   5.506   0.352
  403W        W 2067   1.755   6.456   3.188
  404W        W 2068   0.790   5.941   0.547
  405W        W 2069   1.955   5.799   2.101
  406W        W 2070   2.097   4.194   1.561
  407W        W 2071   0.070   7.061   2.860
  408W        W 2072   1.953   4.403   2.430
  409W        W 2073   1.316   6.426   0.279
  410W        W 2074   2.196   5.461   0.479
  411W        W 2075   0.965   6.068   0.071
  412W        W 2076   0.206   6.309   0.839
  413W        W 2077   0.710   5.379   3.281
  414W        W 2078   1.414   3.939   3.467
  415W        W 2079   1.318   3.849   1.104
  416W        W 2080   0.322   3.858   2.186
  417W        W 2081   0.370   4.821   1.556
  418W        W 2082   1.854   4.648   2.836
  419W        W 2083   0.788   5.727   2.875
  420W        W 2084   0.159   5.711   0.047
  421W        W 2085   1.406   5.394   2.598
  422W        W 2086   3.572   5.363   2.851
  423W        W 2087   2.074   5.185   3.473
  424W        W 2088   0.404   6.152   3.513
  425W        W 2089   3.610   4.074   3.465
  426W        W 2090   0.799   4.453   3.119
  427W        W 2091   1.528   5.201   3.538
  428W        W 2092   1.883   6.566   1.184
  429W        W 2093   1.855   3.759   3.084
  430W        W 2094   2.635   6.464   2.163
  431W        W 2095   0.167   6.502   3.141
  432W        W 2096   0.910   4.494   2.379
  433W        W 2097   0.879   5.750   1.635
  434W        W 2098   2.418   5.445   2.350
  435W        W 2099   0.267   5.243   0.265
  436W        W 2100   1.377   3.744   2.984
  437W        W 2101   3.112   5.102   1.347
  438W        W 2102   2.585   6.190   2.750
  439W        W 2103   1.214   7.110   1.478
  440W        W 2104   0.531   7.069   3.112
  441W        W 2105   0.836   5.044   2.007
  442W        W 2106   1.205   4.858   0.129
  443W        W 2107   0.008   6.617   2.674
  444W        W 2108   0.246   5.294   3.374
  445W        W 2109   1.634   5.291   0.766
  446W        W 2110   0.889   6.234   1.331
  447W        W 2111   2.652   4.854   1.296
  448W        W 2112   1.675   4.233   1.992
  449W        W 2113   3.637   6.144   2.503
  450W        W 2114   0.603   6.148   0.976
  451W        W 2115   1.637   6.618   3.631
  452W        W 2116   2.746   5.763   0.301
  453W        W 2117   2.898   6.006   3.550
  454W        W 2118   2.368   6.009   2.347
  455W        W 2119   0.522   6.614   2.782
  456W        W 2120   1.113   6.597   3.505
  457W        W 2121   0.779   6.934   2.545
  458W        W 2122   0.387   5.723   3.142
  459W        W 2123   0.178   6.044   0.438
  460W        W 2124   3.610   5.992   2.991
  461W        W 2125   0.757   7.246   2.080
  462W        W 2126   2.146   5.135   1.467
  463W        W 2127   1.471   4.472   2.419
  464W        W 2128   2.050   6.027   1.154
  465W        W 2129   0.925   6.822   3.033
  466W        W 2130   0.402   5.645   0.729
  467W        W 2131   2.497   4.780   3.500
  468W        W 2132   0.902   4.899   0.557
  469W        W 2133   2.665   5.226   3.374
  470W        W 2134   1.613   7.224   1.706
  471W        W 2135   2.411   6.835   1.754
  472W        W 2136   1.892   4.040   0.419
  473W        W 2137   1.324   4.386   3.292
  474W        W 2138   1.144   4.970   2.533
  475W        W 2139   0.297   6.121   1.347
  476W        W 2140   0.444   5.418   2.237
  477W        W 2141   1.193   6.952   1.948
  478W        W 2142   2.998   6.123   2.367
  479W        W 2143   2.999   5.907   1.488
  480W        W 2144   2.640   6.973   2.239
  481W        W 2145   1.524   6.413   0.845
  482W        W 2146   0.460   6.132   6.526
  483W        W 2147   1.802   5.753   4.430
  484W        W 2148   1.477   6.845   6.785
  485W        W 2149   0.888   3.686   6.550
  486W        W 2150   2.582   4.074   5.437
  487W        W 2151   2.231   4.945   4.007
  488W        W 2152   1.788   6.180   3.976
  489W        W 2153   1.113   4.854   6.906
  490W        W 2154   3.336   5.756   6.264
  491W        W 2155   2.093   6.278   6.488
  492W        W 2156   2.903   6.437   6.813
  493W        W 2157   3.474   6.060   5.100
  494W        W 2158   0.507   7.173   4.013
  495W        W 2159   0.900   7.219   4.689
  496W        W 2160   1.899   6.245   6.016
  497W        W 2161   3.176   5.453   4.631
  498W        W 2162   0.735   6.805   4.330
  499W        W 2163   0.350   6.528   5.318
  500W        W 2164   0.897   6.234   6.296
  501W        W 2165   1.292   3.999   6.008
  502W        W 2166   3.521   3.761   5.305
  503W        W 2167   2.920   6.964   6.708
  504W        W 2168   2.906   4.857   6.762
  505W        W 2169   1.123   5.771   6.159
  506W        W 2170   2.204   5.525   4.641
  507W        W 2171   0.532   4.821   7.037
  508W        W 2172   2.343   3.893   6.891
  509W        W 2173   2.792   4.361   6.609
  510W        W 2174   2.985   5.433   7.283
  511W        W 2175   0.952   4.010   6.919
  512W        W 2176   3.371   4.976   4.545
  513W        W 2177   2.120   3.650   5.439
  514W        W 2178   0.286   5.753   6.276
  515W        W 2179   3.111   4.695   4.147
  516W        W 2180   2.650   5.417   4.310
  517W        W 2181   2.405   7.077   6.486
  518W        W 2182   2.399   4.407   6.250
  519W        W 2183   1.606   7.115   6.311
  520W        W 2184   3.094   5.388   6.078
  521W        W 2185   3.348   4.655   6.911
  522W        W 2186   1.708   3.779   5.810
  523W        W 2187   1.764   5.994   6.722
  524W        W 2188   2.596   3.845   5.953
  525W        W 2189   0.016   5.688   5.838
  526W        W 2190   1.720   5.506   3.996
  527W        W 2191   1.726   4.902   4.817
  528W        W 2192   1.755   6.456   6.832
  529W        W 2193   2.750   5.125   5.811
  530W        W 2194   1.955   5.799   5.745
  531W        W 2195   3.576   4.472   4.473
  532W        W 2196   0.487   6.287   6.036
  533W        W 2197   0.054   7.133   4.268
  534W        W 2198   1.871   4.562   3.692
  535W        W 2199   0.206   6.309   4.483
  536W        W 2200   0.710   5.379   6.925
  537W        W 2201   2.123   4.081   6.467
  538W        W 2202   0.322   3.858   5.830
  539W        W 2203   0.788   5.727   6.519
  540W        W 2204   0.159   5.711   3.691
  541W        W 2205   3.572   5.363   6.495
  542W        W 2206   3.560   5.563   4.181
  543W        W 2207   0.404   6.152   7.157
  544W        W 2208   3.359   4.438   6.423
  545W        W 2209   2.809   5.716   5.758
  546W        W 2210   1.528   5.201   7.182
  547W        W 2211   1.031   6.380   4.376
  548W        W 2212   2.786   5.878   4.640
  549W        W 2213   2.635   6.464   5.807
  550W        W 2214   2.418   5.445   5.994
  551W        W 2215   3.238   4.225   4.225
  552W        W 2216   1.377   3.744   6.628
  553W        W 2217   2.585   6.190   6.394
  554W        W 2218   0.643   6.430   3.886
  555W        W 2219   3.537   4.910   4.063
  556W        W 2220   0.497   4.021   6.598
  557W        W 2221   1.416   4.351   3.866
  558W        W 2222   0.246   5.294   7.018
  559W        W 2223   2.732   6.233   4.325
  560W        W 2224   1.634   5.291   4.410
  561W        W 2225   2.821   4.095   3.933
  562W        W 2226   2.886   4.702   6.119
  563W        W 2227   0.094   6.961   5.084
  564W        W 2228   0.603   6.148   4.620
  565W        W 2229   0.518   3.765   7.173
  566W        W 2230   2.041   7.284   6.157
  567W        W 2231   2.898   6.006   7.194
  568W        W 2232   0.112   6.172   5.665
  569W        W 2233   1.169   5.618   7.155
  570W        W 2234   2.368   6.009   5.991
  571W        W 2235   1.567   4.060   5.152
  572W        W 2236   0.178   6.044   4.082
  573W        W 2237   3.305   3.895   3.862
  574W        W 2238   3.018   6.790   7.246
  575W        W 2239   0.234   6.663   4.080
  576W        W 2240   2.751   5.213   6.376
  577W        W 2241   0.480   4.310   7.143
  578W        W 2242   2.482   3.793   4.847
  579W        W 2243   2.827   6.686   6.287
  580W        W 2244   1.892   4.040   4.063
  581W        W 2245   3.573   3.668   4.785
  582W        W 2246   1.261   5.303   3.948
  583W        W 2247   3.055   6.010   6.563
  584W        W 2248   3.236   6.465   6.454
  585W        W 2249   0.297   6.121   4.991
  586W        W 2250   0.444   5.418   5.881
  587W        W 2251   2.533   7.084   7.042
  588W        W 2252   1.708   6.597   6.323
  589W        W 2253   2.999   5.907   5.132
  590W        W 2254   1.524   6.413   4.489
  591W        W 2255   3.728   3.595   3.359
  592W        W 2256   6.809   2.218   0.652
  593W        W 2257   4.455   1.294   1.352
  594W        W 2258   5.121   3.201   3.141
  595W        W 2259   4.532   0.042   2.906
  596W        W 2260   6.445   0.735   3.454
  597W        W 2261   3.811   0.527   2.579
  598W        W 2262   4.757   1.210   3.262
  599W        W 2263   6.980   2.112   2.620
  600W        W 2264   5.288   1.445   1.647
  601W        W 2265   5.834   2.784   2.016
  602W        W 2266   5.737   2.634   2.844
  603W        W 2267   6.246   2.831   3.560
  604W        W 2268   4.128   0.375   1.167
  605W        W 2269   4.655   2.633   2.166
  606W        W 2270   6.816   0.769   0.118
  607W        W 2271   7.281   1.570   2.424
  608W        W 2272   5.248   3.277   2.177
  609W        W 2273   6.369   1.769   1.205
  610W        W 2274   5.722   0.467   1.003
  611W        W 2275   3.750   3.018   2.172
  612W        W 2276   4.541   2.590   2.652
  613W        W 2277   4.914   1.950   1.271
  614W        W 2278   6.564   3.320   3.064
  615W        W 2279   3.656   1.712   0.942
  616W        W 2280   4.066   0.094   1.552
  617W        W 2281   6.236   0.655   1.235
  618W        W 2282   6.629   1.789   3.639
  619W        W 2283   5.027   1.082   0.611
  620W        W 2284   4.596   0.366   3.275
  621W        W 2285   6.648   0.850   0.956
  622W        W 2286   4.758   3.549   3.372
  623W        W 2287   7.155   2.868   0.087
  624W        W 2288   5.789   3.302   1.338
  625W        W 2289   7.250   0.299   2.984
  626W        W 2290   6.755   1.051   0.503
  627W        W 2291   5.727   1.983   1.652
  628W        W 2292   3.721   1.065   2.472
  629W        W 2293   4.248   0.481   0.356
  630W        W 2294   6.314   3.587   1.824
  631W        W 2295   5.122   2.272   2.125
  632W        W 2296   4.586   0.498   1.020
  633W        W 2297   4.591   0.726   0.045
  634W        W 2298   5.392   1.335   2.439
  635W        W 2299   3.660   2.044   2.194
  636W        W 2300   4.632   0.177   0.122
  637W        W 2301   5.732   2.028   3.198
  638W        W 2302   6.349   2.058   3.091
  639W        W 2303   5.399   2.812   3.188
  640W        W 2304   4.434   2.297   0.547
  641W        W 2305   5.741   0.550   1.561
  642W        W 2306   7.220   0.828   0.829
  643W        W 2307   4.131   2.643   2.392
  644W        W 2308   4.683   1.008   0.996
  645W        W 2309   6.452   0.389   0.843
  646W        W 2310   3.782   0.237   0.291
  647W        W 2311   4.962   0.205   1.104
  648W        W 2312   6.021   0.282   0.609
  649W        W 2313   3.966   0.214   2.186
  650W        W 2314   4.384   0.432   1.896
  651W        W 2315   3.646   0.694   0.314
  652W        W 2316   5.657   3.560   0.350
  653W        W 2317   4.538   2.478   3.173
  654W        W 2318   7.216   1.719   2.851
  655W        W 2319   5.718   1.541   3.473
  656W        W 2320   4.048   2.508   3.513
  657W        W 2321   7.254   0.430   3.465
  658W        W 2322   5.280   3.488   3.563
  659W        W 2323   4.877   2.803   2.981
  660W        W 2324   6.214   3.453   0.747
  661W        W 2325   6.430   2.234   0.996
  662W        W 2326   7.277   1.482   1.365
  663W        W 2327   5.499   0.115   3.084
  664W        W 2328   5.801   2.966   0.299
  665W        W 2329   4.524   0.198   1.489
  666W        W 2330   6.941   2.153   1.880
  667W        W 2331   4.836   3.517   2.385
  668W        W 2332   4.873   1.131   1.563
  669W        W 2333   6.229   2.546   2.750
  670W        W 2334   4.287   2.786   0.242
  671W        W 2335   6.804   2.544   1.052
  672W        W 2336   7.181   1.266   0.419
  673W        W 2337   4.141   0.377   2.954
  674W        W 2338   5.060   0.707   0.222
  675W        W 2339   4.195   1.523   1.003
  676W        W 2340   3.966   3.375   2.440
  677W        W 2341   6.465   0.451   0.289
  678W        W 2342   7.281   2.500   2.503
  679W        W 2343   7.036   1.942   1.421
  680W        W 2344   5.685   3.640   2.513
  681W        W 2345   6.070   0.941   1.689
  682W        W 2346   3.756   2.528   2.021
  683W        W 2347   5.009   0.490   0.662
  684W        W 2348   4.166   2.970   2.782
  685W        W 2349   4.757   2.953   3.505
  686W        W 2350   7.168   3.407   0.146
  687W        W 2351   4.462   1.990   1.072
  688W        W 2352   4.833   2.997   2.467
  689W        W 2353   6.949   0.251   0.218
  690W        W 2354   4.569   3.178   3.033
  691W        W 2355   3.931   0.544   1.728
  692W        W 2356   5.450   3.111   1.783
  693W        W 2357   6.144   0.118   0.124
  694W        W 2358   4.546   1.255   0.557
  695W        W 2359   6.309   1.582   3.374
  696W        W 2360   5.257   3.580   1.706
  697W        W 2361   6.471   3.042   2.643
  698W        W 2362   5.980   0.771   3.187
  699W        W 2363   5.584   1.719   2.690
  700W        W 2364   3.941   2.477   1.347
  701W        W 2365   4.297   2.504   1.843
  702W        W 2366   5.042   2.531   3.468
  703W        W 2367   6.939   3.303   6.323
  704W        W 2368   4.455   1.294   4.996
  705W        W 2369   5.446   2.109   4.430
  706W        W 2370   6.226   0.430   5.437
  707W        W 2371   5.875   1.301   4.007
  708W        W 2372   3.864   1.319   5.669
  709W        W 2373   7.216   1.069   5.405
  710W        W 2374   5.834   2.784   5.660
  711W        W 2375   4.334   2.218   5.892
  712W        W 2376   3.693   1.746   5.463
  713W        W 2377   7.000   1.501   6.909
  714W        W 2378   4.616   2.945   5.354
  715W        W 2379   5.737   2.634   6.488
  716W        W 2380   4.957   1.274   5.713
  717W        W 2381   5.325   2.151   7.214
  718W        W 2382   3.715   1.258   7.214
  719W        W 2383   4.128   0.375   4.811
  720W        W 2384   4.655   2.633   5.810
  721W        W 2385   7.118   2.416   5.100
  722W        W 2386   6.531   0.816   5.667
  723W        W 2387   4.151   3.529   4.013
  724W        W 2388   3.994   2.884   5.318
  725W        W 2389   5.335   3.234   4.188
  726W        W 2390   3.750   3.018   5.816
  727W        W 2391   4.541   2.590   6.296
  728W        W 2392   5.848   1.881   4.641
  729W        W 2393   4.191   1.301   6.115
  730W        W 2394   4.066   0.094   5.196
  731W        W 2395   5.837   0.775   4.098
  732W        W 2396   5.987   0.249   6.891
  733W        W 2397   6.236   0.655   4.879
  734W        W 2398   6.629   1.789   7.283
  735W        W 2399   4.369   3.365   5.269
  736W        W 2400   5.027   1.082   4.255
  737W        W 2401   4.596   0.366   6.919
  738W        W 2402   4.684   0.085   4.251
  739W        W 2403   7.005   0.619   5.286
  740W        W 2404   7.155   2.868   3.731
  741W        W 2405   4.062   2.071   5.433
  742W        W 2406   5.979   0.658   3.663
  743W        W 2407   7.113   2.990   5.383
  744W        W 2408   5.597   1.396   6.687
  745W        W 2409   5.690   2.735   4.390
  746W        W 2410   6.090   2.029   7.130
  747W        W 2411   5.764   0.006   5.439
  748W        W 2412   3.930   2.109   6.276
  749W        W 2413   6.963   2.305   3.826
  750W        W 2414   5.398   1.788   4.887
  751W        W 2415   6.294   1.773   4.310
  752W        W 2416   3.983   0.786   5.787
  753W        W 2417   7.112   3.456   5.760
  754W        W 2418   5.042   2.900   5.162
  755W        W 2419   6.738   1.744   6.078
  756W        W 2420   6.992   1.011   6.911
  757W        W 2421   5.408   2.350   6.722
  758W        W 2422   5.122   2.272   5.769
  759W        W 2423   6.892   2.995   5.895
  760W        W 2424   4.591   0.726   3.689
  761W        W 2425   6.240   0.201   5.953
  762W        W 2426   4.632   0.177   3.766
  763W        W 2427   5.732   2.028   6.842
  764W        W 2428   6.349   2.058   6.735
  765W        W 2429   5.633   0.198   7.240
  766W        W 2430   4.067   3.482   4.707
  767W        W 2431   5.399   2.812   6.832
  768W        W 2432   6.069   2.529   3.877
  769W        W 2433   4.131   2.643   6.036
  770W        W 2434   3.698   3.489   4.268
  771W        W 2435   4.960   2.782   3.923
  772W        W 2436   5.840   1.817   4.123
  773W        W 2437   5.515   0.918   3.692
  774W        W 2438   6.099   2.483   6.870
  775W        W 2439   5.068   2.556   6.225
  776W        W 2440   5.058   0.295   7.111
  777W        W 2441   3.966   0.214   5.830
  778W        W 2442   7.092   1.674   3.721
  779W        W 2443   4.384   0.432   5.540
  780W        W 2444   3.646   0.694   3.958
  781W        W 2445   4.432   2.083   6.519
  782W        W 2446   5.790   1.481   5.698
  783W        W 2447   4.538   2.478   6.817
  784W        W 2448   6.067   2.251   4.280
  785W        W 2449   5.718   1.541   7.117
  786W        W 2450   4.877   2.803   6.625
  787W        W 2451   6.453   2.072   5.758
  788W        W 2452   4.675   2.736   4.376
  789W        W 2453   6.430   2.234   4.640
  790W        W 2454   4.198   0.860   6.364
  791W        W 2455   5.527   2.922   4.828
  792W        W 2456   6.279   2.820   5.807
  793W        W 2457   6.582   3.164   5.515
  794W        W 2458   5.801   2.966   3.943
  795W        W 2459   4.524   0.198   5.133
  796W        W 2460   6.903   3.613   7.061
  797W        W 2461   6.062   1.801   5.994
  798W        W 2462   7.045   3.257   4.606
  799W        W 2463   6.229   2.546   6.394
  800W        W 2464   4.879   1.000   6.506
  801W        W 2465   6.804   2.544   4.696
  802W        W 2466   4.476   1.705   6.188
  803W        W 2467   6.686   3.593   6.017
  804W        W 2468   3.652   2.973   6.318
  805W        W 2469   5.060   0.707   3.866
  806W        W 2470   3.890   1.650   7.018
  807W        W 2471   6.856   0.114   4.314
  808W        W 2472   6.376   2.589   4.325
  809W        W 2473   6.465   0.451   3.933
  810W        W 2474   6.530   1.058   6.119
  811W        W 2475   4.239   1.651   5.326
  812W        W 2476   5.319   0.589   5.636
  813W        W 2477   7.281   2.500   6.147
  814W        W 2478   7.199   0.487   5.708
  815W        W 2479   3.738   3.317   5.084
  816W        W 2480   4.162   0.121   7.173
  817W        W 2481   5.281   2.974   7.275
  818W        W 2482   7.036   1.942   5.065
  819W        W 2483   6.390   2.119   3.945
  820W        W 2484   5.357   0.072   4.474
  821W        W 2485   3.756   2.528   5.665
  822W        W 2486   5.009   0.490   4.306
  823W        W 2487   6.012   2.365   5.991
  824W        W 2488   4.608   0.750   4.163
  825W        W 2489   5.211   0.416   5.152
  826W        W 2490   3.822   2.400   4.082
  827W        W 2491   5.341   1.351   3.952
  828W        W 2492   7.254   2.348   6.635
  829W        W 2493   7.260   2.224   4.598
  830W        W 2494   4.616   3.087   4.838
  831W        W 2495   5.115   0.828   6.063
  832W        W 2496   3.878   3.019   4.080
  833W        W 2497   5.694   2.383   4.798
  834W        W 2498   3.931   0.544   5.372
  835W        W 2499   6.395   1.569   6.376
  836W        W 2500   4.862   3.215   4.338
  837W        W 2501   4.124   0.666   7.143
  838W        W 2502   6.309   1.582   7.018
  839W        W 2503   6.471   3.042   6.287
  840W        W 2504   5.536   0.396   4.063
  841W        W 2505   4.905   1.659   3.948
  842W        W 2506   6.699   2.366   6.563
  843W        W 2507   6.880   2.821   6.454
  844W        W 2508   3.824   1.242   6.608
  845W        W 2509   5.584   1.719   6.334
  846W        W 2510   4.088   1.774   5.881
  847W        W 2511   6.177   3.440   7.042
  848W        W 2512   6.350   3.233   5.000
  849W        W 2513   6.642   2.479   6.011
  850W        W 2514   5.734   3.276   4.474
  851W        W 2515   3.728   7.239   3.359
  852W        W 2516   6.809   5.862   0.652
  853W        W 2517   5.446   5.753   0.786
  854W        W 2518   3.770   4.406   3.104
  855W        W 2519   4.532   3.686   2.906
  856W        W 2520   6.226   4.074   1.793
  857W        W 2521   5.875   4.945   0.363
  858W        W 2522   6.445   4.379   3.454
  859W        W 2523   3.910   6.790   3.600
  860W        W 2524   5.432   6.180   0.332
  861W        W 2525   4.757   4.854   3.262
  862W        W 2526   7.216   4.713   1.761
  863W        W 2527   4.957   4.918   2.069
  864W        W 2528   6.246   6.475   3.560
  865W        W 2529   5.325   5.795   3.570
  866W        W 2530   3.715   4.902   3.570
  867W        W 2531   6.547   6.437   3.169
  868W        W 2532   4.341   3.973   2.471
  869W        W 2533   6.964   4.991   2.746
  870W        W 2534   6.335   5.101   0.232
  871W        W 2535   5.349   4.575   1.571
  872W        W 2536   5.949   6.662   2.565
  873W        W 2537   6.820   5.453   0.987
  874W        W 2538   3.750   4.304   1.285
  875W        W 2539   6.727   4.904   0.008
  876W        W 2540   3.750   6.662   2.172
  877W        W 2541   4.936   3.999   2.364
  878W        W 2542   7.165   3.761   1.661
  879W        W 2543   5.490   4.606   0.748
  880W        W 2544   4.191   4.945   2.471
  881W        W 2545   4.176   4.821   3.393
  882W        W 2546   5.834   4.085   2.113
  883W        W 2547   5.482   4.270   3.276
  884W        W 2548   5.837   4.419   0.454
  885W        W 2549   7.006   6.194   3.369
  886W        W 2550   6.236   4.299   1.235
  887W        W 2551   7.015   4.976   0.901
  888W        W 2552   6.983   4.543   2.210
  889W        W 2553   6.963   5.949   0.182
  890W        W 2554   6.755   4.695   0.503
  891W        W 2555   6.398   6.338   1.688
  892W        W 2556   6.608   5.415   1.719
  893W        W 2557   6.049   7.077   2.842
  894W        W 2558   6.947   4.069   1.133
  895W        W 2559   5.352   3.779   2.166
  896W        W 2560   6.594   3.949   1.496
  897W        W 2561   6.314   7.231   1.824
  898W        W 2562   3.660   5.688   2.194
  899W        W 2563   5.364   5.506   0.352
  900W        W 2564   6.349   5.702   3.091
  901W        W 2565   5.633   3.842   3.596
  902W        W 2566   4.855   4.458   1.989
  903W        W 2567   6.069   6.173   0.233
  904W        W 2568   7.220   4.472   0.829
  905W        W 2569   5.597   4.403   2.430
  906W        W 2570   5.515   4.562   0.048
  907W        W 2571   6.099   6.127   3.226
  908W        W 2572   6.452   4.033   0.843
  909W        W 2573   4.867   6.116   1.673
  910W        W 2574   5.058   3.939   3.467
  911W        W 2575   5.767   4.081   2.823
  912W        W 2576   6.021   3.926   0.609
  913W        W 2577   3.966   3.858   2.186
  914W        W 2578   4.014   4.821   1.556
  915W        W 2579   6.703   3.929   1.962
  916W        W 2580   6.696   4.115   2.392
  917W        W 2581   5.498   4.648   2.836
  918W        W 2582   3.803   5.711   0.047
  919W        W 2583   5.050   5.394   2.598
  920W        W 2584   7.204   5.563   0.537
  921W        W 2585   6.972   5.002   2.086
  922W        W 2586   4.443   4.453   3.119
  923W        W 2587   6.214   7.097   0.747
  924W        W 2588   4.703   4.132   2.781
  925W        W 2589   5.172   5.201   3.538
  926W        W 2590   4.198   4.504   2.720
  927W        W 2591   5.499   3.759   3.084
  928W        W 2592   5.801   6.610   0.299
  929W        W 2593   4.554   4.494   2.379
  930W        W 2594   4.524   3.842   1.489
  931W        W 2595   6.145   4.684   2.181
  932W        W 2596   6.903   7.257   3.417
  933W        W 2597   6.062   5.445   2.350
  934W        W 2598   5.021   3.744   2.984
  935W        W 2599   5.118   5.037   2.887
  936W        W 2600   4.879   4.644   2.862
  937W        W 2601   4.175   7.069   3.112
  938W        W 2602   4.408   4.980   2.938
  939W        W 2603   7.181   4.910   0.419
  940W        W 2604   5.916   4.977   2.515
  941W        W 2605   4.476   5.349   2.544
  942W        W 2606   4.141   4.021   2.954
  943W        W 2607   4.480   5.044   2.007
  944W        W 2608   5.237   5.326   2.117
  945W        W 2609   5.060   4.351   0.222
  946W        W 2610   3.966   7.019   2.440
  947W        W 2611   6.292   6.370   1.197
  948W        W 2612   6.376   6.233   0.681
  949W        W 2613   6.530   4.702   2.475
  950W        W 2614   5.319   4.233   1.992
  951W        W 2615   7.281   6.144   2.503
  952W        W 2616   7.199   4.131   2.064
  953W        W 2617   4.162   3.765   3.529
  954W        W 2618   5.281   6.618   3.631
  955W        W 2619   6.390   5.763   0.301
  956W        W 2620   6.070   4.585   1.689
  957W        W 2621   6.012   6.009   2.347
  958W        W 2622   4.757   6.597   3.505
  959W        W 2623   5.211   4.060   1.508
  960W        W 2624   3.822   6.044   0.438
  961W        W 2625   5.341   4.995   0.308
  962W        W 2626   5.277   4.186   2.791
  963W        W 2627   5.696   6.898   3.469
  964W        W 2628   6.662   6.790   3.602
  965W        W 2629   7.260   5.868   0.954
  966W        W 2630   5.557   3.747   1.357
  967W        W 2631   5.694   6.027   1.154
  968W        W 2632   3.731   4.007   0.805
  969W        W 2633   6.272   4.599   0.304
  970W        W 2634   3.944   7.022   1.865
  971W        W 2635   4.124   4.310   3.499
  972W        W 2636   6.126   3.793   1.203
  973W        W 2637   6.471   6.686   2.643
  974W        W 2638   5.536   4.040   0.419
  975W        W 2639   7.217   3.668   1.141
  976W        W 2640   7.071   4.640   1.294
  977W        W 2641   5.763   5.810   0.171
  978W        W 2642   4.788   4.970   2.533
  979W        W 2643   6.880   6.465   2.810
  980W        W 2644   3.824   4.886   2.964
  981W        W 2645   5.584   5.363   2.690
  982W        W 2646   6.405   5.704   2.587
  983W        W 2647   6.177   7.084   3.398
  984W        W 2648   6.073   4.823   2.951
  985W        W 2649   4.297   6.148   1.843
  986W        W 2650   6.284   6.973   2.239
  987W        W 2651   5.283   4.754   3.319
  988W        W 2652   4.389   5.153   0.104
  989W        W 2653   6.809   5.862   4.296
  990W        W 2654   4.455   4.938   4.996
  991W        W 2655   5.121   6.845   6.785
  992W        W 2656   3.770   4.406   6.748
  993W        W 2657   5.875   4.945   4.007
  994W        W 2658   5.432   6.180   3.976
  995W        W 2659   5.288   5.089   5.291
  996W        W 2660   5.834   6.428   5.660
  997W        W 2661   7.000   5.145   6.909
  998W        W 2662   4.957   4.918   5.713
  999W        W 2663   3.715   4.902   7.214
 1000W        W 2664   7.118   6.060   5.100
 1001W        W 2665   5.543   6.245   6.016
 1002W        W 2666   3.750   4.304   4.929
 1003W        W 2667   3.994   6.528   5.318
 1004W        W 2668   5.335   6.878   4.188
 1005W        W 2669   6.727   4.904   3.652
 1006W        W 2670   4.914   5.594   4.915
 1007W        W 2671   4.936   3.999   6.008
 1008W        W 2672   4.039   4.666   3.952
 1009W        W 2673   7.263   6.513   4.896
 1010W        W 2674   5.848   5.525   4.641
 1011W        W 2675   4.191   4.945   6.115
 1012W        W 2676   4.066   3.738   5.196
 1013W        W 2677   5.987   3.893   6.891
 1014W        W 2678   7.006   6.194   7.013
 1015W        W 2679   4.369   7.009   5.269
 1016W        W 2680   5.027   4.726   4.255
 1017W        W 2681   4.684   3.729   4.251
 1018W        W 2682   7.113   6.634   5.383
 1019W        W 2683   5.597   5.040   6.687
 1020W        W 2684   3.930   5.753   6.276
 1021W        W 2685   6.963   5.949   3.826
 1022W        W 2686   5.399   5.778   6.222
 1023W        W 2687   6.564   6.735   4.536
 1024W        W 2688   6.608   5.415   5.363
 1025W        W 2689   3.983   4.430   5.787
 1026W        W 2690   6.761   5.482   6.614
 1027W        W 2691   6.992   4.655   6.911
 1028W        W 2692   4.248   4.125   4.000
 1029W        W 2693   4.754   5.365   4.409
 1030W        W 2694   5.408   5.994   6.722
 1031W        W 2695   5.726   6.879   5.808
 1032W        W 2696   5.122   5.916   5.769
 1033W        W 2697   6.892   6.639   5.895
 1034W        W 2698   4.586   4.142   4.664
 1035W        W 2699   5.108   6.439   5.624
 1036W        W 2700   5.364   5.506   3.996
 1037W        W 2701   4.632   3.821   3.766
 1038W        W 2702   4.281   4.414   5.031
 1039W        W 2703   5.399   6.456   6.832
 1040W        W 2704   4.434   5.941   4.191
 1041W        W 2705   6.069   6.173   3.877
 1042W        W 2706   5.597   4.403   6.074
 1043W        W 2707   4.960   6.426   3.923
 1044W        W 2708   5.840   5.461   4.123
 1045W        W 2709   3.782   3.881   3.935
 1046W        W 2710   5.068   6.200   6.225
 1047W        W 2711   4.354   5.379   6.925
 1048W        W 2712   4.962   3.849   4.748
 1049W        W 2713   3.966   3.858   5.830
 1050W        W 2714   4.014   4.821   5.200
 1051W        W 2715   4.125   4.427   4.420
 1052W        W 2716   4.384   4.076   5.540
 1053W        W 2717   5.657   7.204   3.994
 1054W        W 2718   4.538   6.122   6.817
 1055W        W 2719   6.541   7.195   3.975
 1056W        W 2720   5.718   5.185   7.117
 1057W        W 2721   7.254   4.074   7.109
 1058W        W 2722   6.972   5.002   5.730
 1059W        W 2723   5.280   7.132   7.207
 1060W        W 2724   6.674   6.360   3.877
 1061W        W 2725   6.214   7.097   4.391
 1062W        W 2726   6.453   5.716   5.758
 1063W        W 2727   4.675   6.380   4.376
 1064W        W 2728   6.430   5.878   4.640
 1065W        W 2729   7.277   5.126   5.009
 1066W        W 2730   6.582   6.808   5.515
 1067W        W 2731   5.801   6.610   3.943
 1068W        W 2732   4.524   3.842   5.133
 1069W        W 2733   4.943   5.855   4.025
 1070W        W 2734   6.941   5.797   5.524
 1071W        W 2735   6.655   7.237   4.744
 1072W        W 2736   4.523   5.750   5.279
 1073W        W 2737   6.062   5.445   5.994
 1074W        W 2738   3.911   5.243   3.909
 1075W        W 2739   6.727   6.546   5.086
 1076W        W 2740   4.175   7.069   6.756
 1077W        W 2741   4.926   5.967   4.534
 1078W        W 2742   6.686   7.237   6.017
 1079W        W 2743   6.477   3.871   7.011
 1080W        W 2744   4.480   5.044   5.651
 1081W        W 2745   5.237   5.326   5.761
 1082W        W 2746   6.292   6.370   4.841
 1083W        W 2747   3.890   5.294   7.018
 1084W        W 2748   6.856   3.758   4.314
 1085W        W 2749   6.376   6.233   4.325
 1086W        W 2750   6.530   4.702   6.119
 1087W        W 2751   4.533   6.234   4.975
 1088W        W 2752   4.247   6.148   4.620
 1089W        W 2753   5.281   6.618   7.275
 1090W        W 2754   7.036   5.586   5.065
 1091W        W 2755   6.390   5.763   3.945
 1092W        W 2756   5.685   7.284   6.157
 1093W        W 2757   5.357   3.716   4.474
 1094W        W 2758   5.009   4.134   4.306
 1095W        W 2759   6.012   6.009   5.991
 1096W        W 2760   4.757   6.597   7.149
 1097W        W 2761   4.608   4.394   4.163
 1098W        W 2762   6.083   6.644   6.725
 1099W        W 2763   7.168   7.051   3.790
 1100W        W 2764   4.462   5.634   4.716
 1101W        W 2765   5.696   6.898   7.113
 1102W        W 2766   7.254   5.992   6.635
 1103W        W 2767   7.260   5.868   4.598
 1104W        W 2768   5.115   4.472   6.063
 1105W        W 2769   5.694   6.027   4.798
 1106W        W 2770   4.569   6.822   6.677
 1107W        W 2771   4.046   5.645   4.373
 1108W        W 2772   3.931   4.188   5.372
 1109W        W 2773   5.479   6.153   5.429
 1110W        W 2774   6.272   4.599   3.948
 1111W        W 2775   4.862   6.859   4.338
 1112W        W 2776   3.855   4.910   4.476
 1113W        W 2777   6.309   5.226   7.018
 1114W        W 2778   5.257   7.224   5.350
 1115W        W 2779   6.055   6.835   5.398
 1116W        W 2780   6.074   5.815   4.992
 1117W        W 2781   4.905   5.303   3.948
 1118W        W 2782   6.353   6.711   4.030
 1119W        W 2783   3.824   4.886   6.608
 1120W        W 2784   6.177   7.084   7.042
 1121W        W 2785   6.350   6.877   5.000
 1122W        W 2786   5.352   6.597   6.323
 1123W        W 2787   6.642   6.123   6.011
 1124W        W 2788   5.692   6.195   7.148
 1125W        W 2789   6.643   5.907   5.132
 1126W        W 2790   5.734   6.920   4.474
 1127W        W 2791   5.042   6.175   7.112
 1128W        W 2792   4.389   5.153   3.748
   7.50000   7.50000   7.50000
