DSPC BILAYER SELF-ASSEMBLY
 2792
    1DSPC   NC3    1   3.575   4.373   1.721
    1DSPC   PO4    2   3.501   4.082   1.346
    1DSPC   GL1    3   3.729   3.816   1.034
    1DSPC   GL2    4   3.853   3.968   0.726
    1DSPC   C1A    5   3.660   3.429   0.779
    1DSPC   C2A    6   3.335   3.095   0.667
    1DSPC   C3A    7   2.958   2.978   0.422
    1DSPC   C4A    8   2.690   3.265   0.182
    1DSPC   C5A    9   2.778   3.503   7.294
    1DSPC   C1B   10   3.825   3.680   0.356
    1DSPC   C2B   11   3.608   3.540   7.481
    1DSPC   C3B   12   3.272   3.429   7.215
    1DSPC   C4B   13   3.092   3.658   6.878
    1DSPC   C5B   14   2.937   3.616   6.463
    2DSPC   NC3   15   4.819   1.478   2.119
    2DSPC   PO4   16   5.065   1.408   1.718
    2DSPC   GL1   17   5.398   1.157   2.000
    2DSPC   GL2   18   5.380   0.806   2.101
    2DSPC   C1A   19   5.607   1.114   2.443
    2DSPC   C2A   20   6.024   1.073   2.592
    2DSPC   C3A   21   6.216   0.881   2.959
    2DSPC   C4A   22   6.156   0.500   3.159
    2DSPC   C5A   23   5.826   0.240   3.165
    2DSPC   C1B   24   5.341   0.675   2.550
    2DSPC   C2B   25   5.417   0.270   2.767
    2DSPC   C3B   26   5.543   7.375   2.987
    2DSPC   C4B   27   5.523   6.950   3.107
    2DSPC   C5B   28   5.563   6.639   3.420
    3DSPC   NC3   29   0.275   3.904   1.978
    3DSPC   PO4   30   7.454   3.541   2.057
    3DSPC   GL1   31   7.095   3.274   1.836
    3DSPC   GL2   32   6.718   3.384   1.804
    3DSPC   C1A   33   6.823   2.907   1.671
    3DSPC   C2A   34   6.380   2.845   1.737
    3DSPC   C3A   35   6.146   3.214   1.839
    3DSPC   C4A   36   6.004   3.533   1.552
    3DSPC   C5A   37   5.748   3.929   1.492
    3DSPC   C1B   38   6.452   3.254   1.426
    3DSPC   C2B   39   6.206   3.337   1.036
    3DSPC   C3B   40   6.087   3.647   0.698
    3DSPC   C4B   41   5.987   4.077   0.585
    3DSPC   C5B   42   5.869   4.522   0.625
    4DSPC   NC3   43   6.990   2.521   5.060
    4DSPC   PO4   44   6.901   2.730   5.484
    4DSPC   GL1   45   6.439   2.854   5.459
    4DSPC   GL2   46   6.387   3.216   5.335
    4DSPC   C1A   47   6.096   3.014   5.747
    4DSPC   C2A   48   5.991   3.321   6.090
    4DSPC   C3A   49   6.229   3.626   6.337
    4DSPC   C4A   50   6.323   4.063   6.193
    4DSPC   C5A   51   6.214   4.467   5.963
    4DSPC   C1B   52   6.398   3.718   5.263
    4DSPC   C2B   53   6.352   4.187   5.157
    4DSPC   C3B   54   6.574   4.624   5.168
    4DSPC   C4B   55   6.971   4.868   5.307
    4DSPC   C5B   56   7.257   5.120   4.982
    5DSPC   NC3   57   3.292   6.378   2.571
    5DSPC   PO4   58   3.547   6.536   2.218
    5DSPC   GL1   59   3.092   6.536   2.164
    5DSPC   GL2   60   3.142   6.848   2.046
    5DSPC   C1A   61   2.648   6.707   2.116
    5DSPC   C2A   62   2.178   6.727   2.111
    5DSPC   C3A   63   1.922   7.072   2.050
    5DSPC   C4A   64   2.036   7.441   1.758
    5DSPC   C5A   65   2.131   0.406   1.782
    5DSPC   C1B   66   3.221   7.281   1.998
    5DSPC   C2B   67   2.911   0.097   2.015
    5DSPC   C3B   68   2.585   0.409   2.038
    5DSPC   C4B   69   2.395   0.823   1.983
    5DSPC   C5B   70   2.448   1.242   1.806
    6DSPC   NC3   71   3.950   4.535   6.137
    6DSPC   PO4   72   4.281   4.287   6.347
    6DSPC   GL1   73   4.723   4.234   6.257
    6DSPC   GL2   74   4.898   4.162   5.932
    6DSPC   C1A   75   5.037   3.963   6.414
    6DSPC   C2A   76   5.246   3.573   6.386
    6DSPC   C3A   77   5.516   3.224   6.354
    6DSPC   C4A   78   5.373   2.829   6.298
    6DSPC   C5A   79   5.065   2.516   6.251
    6DSPC   C1B   80   4.985   3.687   5.960
    6DSPC   C2B   81   5.093   3.210   6.034
    6DSPC   C3B   82   5.162   2.784   5.840
    6DSPC   C4B   83   5.176   2.315   5.761
    6DSPC   C5B   84   4.890   1.978   5.584
    7DSPC   NC3   85   5.765   3.653   7.192
    7DSPC   PO4   86   5.407   3.522   7.012
    7DSPC   GL1   87   4.955   3.413   6.970
    7DSPC   GL2   88   4.651   3.641   7.019
    7DSPC   C1A   89   4.677   3.183   6.681
    7DSPC   C2A   90   4.268   2.996   6.754
    7DSPC   C3A   91   4.128   2.793   7.127
    7DSPC   C4A   92   3.881   2.795   0.015
    7DSPC   C5A   93   4.044   2.782   0.459
    7DSPC   C1B   94   4.525   3.554   7.496
    7DSPC   C2B   95   4.341   3.687   0.434
    7DSPC   C3B   96   4.144   3.598   0.895
    7DSPC   C4B   97   3.968   3.576   1.362
    7DSPC   C5B   98   3.790   3.688   1.810
    8DSPC   NC3   99   4.276   5.744   6.580
    8DSPC   PO4  100   4.661   6.084   6.639
    8DSPC   GL1  101   5.015   6.439   6.633
    8DSPC   GL2  102   5.347   6.383   6.816
    8DSPC   C1A  103   5.311   6.830   6.573
    8DSPC   C2A  104   5.779   6.951   6.631
    8DSPC   C3A  105   6.200   7.169   6.744
    8DSPC   C4A  106   6.510   7.441   6.980
    8DSPC   C5A  107   6.524   7.439   7.474
    8DSPC   C1B  108   5.801   6.505   6.898
    8DSPC   C2B  109   6.249   6.517   7.073
    8DSPC   C3B  110   6.618   6.548   7.383
    8DSPC   C4B  111   6.881   6.589   0.269
    8DSPC   C5B  112   7.096   6.811   0.624
    9DSPC   NC3  113   1.361   4.698   6.181
    9DSPC   PO4  114   1.224   4.358   6.483
    9DSPC   GL1  115   0.945   4.045   6.254
    9DSPC   GL2  116   1.061   3.756   6.068
    9DSPC   C1A  117   0.570   3.882   6.011
    9DSPC   C2A  118   0.115   3.914   5.899
    9DSPC   C3A  119   7.398   4.163   5.574
    9DSPC   C4A  120   7.405   4.120   5.128
    9DSPC   C5A  121   0.083   4.142   4.704
    9DSPC   C1B  122   0.970   3.726   5.607
    9DSPC   C2B  123   1.006   3.514   5.167
    9DSPC   C3B  124   1.153   3.342   4.749
    9DSPC   C4B  125   1.305   3.275   4.304
    9DSPC   C5B  126   1.629   3.007   4.074
   10DSPC   NC3  127   2.012   0.245   2.872
   10DSPC   PO4  128   2.144   0.670   3.096
   10DSPC   GL1  129   1.679   0.794   3.222
   10DSPC   GL2  130   1.423   1.032   3.049
   10DSPC   C1A  131   1.429   0.981   3.577
   10DSPC   C2A  132   1.265   1.342   3.828
   10DSPC   C3A  133   1.290   1.796   3.761
   10DSPC   C4A  134   1.053   2.081   3.506
   10DSPC   C5A  135   0.615   2.139   3.537
   10DSPC   C1B  136   1.184   1.375   3.324
   10DSPC   C2B  137   0.834   1.605   3.589
   10DSPC   C3B  138   0.400   1.723   3.782
   10DSPC   C4B  139   0.016   1.436   3.842
   10DSPC   C5B  140   7.100   1.249   3.717
   11DSPC   NC3  141   3.939   0.945   6.349
   11DSPC   PO4  142   4.004   1.240   6.715
   11DSPC   GL1  143   4.360   1.140   6.432
   11DSPC   GL2  144   4.450   0.808   6.299
   11DSPC   C1A  145   4.708   1.327   6.238
   11DSPC   C2A  146   4.971   1.627   6.474
   11DSPC   C3A  147   5.006   1.735   6.929
   11DSPC   C4A  148   5.235   1.744   7.370
   11DSPC   C5A  149   5.638   1.916   0.054
   11DSPC   C1B  150   4.814   0.490   6.327
   11DSPC   C2B  151   5.046   0.062   6.371
   11DSPC   C3B  152   5.431   7.350   6.585
   11DSPC   C4B  153   5.747   7.363   6.927
   11DSPC   C5B  154   6.081   7.429   7.231
   12DSPC   NC3  155   5.801   5.597   1.218
   12DSPC   PO4  156   5.754   5.912   1.583
   12DSPC   GL1  157   5.695   6.381   1.688
   12DSPC   GL2  158   5.909   6.600   1.933
   12DSPC   C1A  159   5.394   6.652   1.919
   12DSPC   C2A  160   5.243   6.640   2.383
   12DSPC   C3A  161   5.211   6.594   2.867
   12DSPC   C4A  162   5.259   6.283   3.245
   12DSPC   C5A  163   5.574   6.161   3.608
   12DSPC   C1B  164   6.062   6.676   2.374
   12DSPC   C2B  165   6.277   6.832   2.766
   12DSPC   C3B  166   6.436   6.609   3.134
   12DSPC   C4B  167   6.553   6.353   3.497
   12DSPC   C5B  168   6.931   6.269   3.709
   13DSPC   NC3  169   4.881   0.413   2.839
   13DSPC   PO4  170   4.836   0.846   2.941
   13DSPC   GL1  171   4.681   0.570   3.249
   13DSPC   GL2  172   4.951   0.570   3.411
   13DSPC   C1A  173   4.551   0.234   3.527
   13DSPC   C2A  174   4.172   0.118   3.759
   13DSPC   C3A  175   4.183   7.473   4.189
   13DSPC   C4A  176   4.561   7.403   4.477
   13DSPC   C5A  177   4.959   7.173   4.621
   13DSPC   C1B  178   5.046   0.223   3.695
   13DSPC   C2B  179   5.366   7.432   3.854
   13DSPC   C3B  180   5.534   7.422   4.249
   13DSPC   C4B  181   5.486   7.185   4.622
   13DSPC   C5B  182   5.737   6.835   4.784
   14DSPC   NC3  183   6.513   5.103   0.732
   14DSPC   PO4  184   6.161   5.126   0.441
   14DSPC   GL1  185   6.260   5.528   0.709
   14DSPC   GL2  186   6.352   5.871   0.548
   14DSPC   C1A  187   6.205   5.896   1.031
   14DSPC   C2A  188   6.106   6.330   1.226
   14DSPC   C3A  189   5.900   6.720   1.422
   14DSPC   C4A  190   5.815   7.069   1.722
   14DSPC   C5A  191   5.608   7.386   2.003
   14DSPC   C1B  192   6.299   6.337   0.736
   14DSPC   C2B  193   6.129   6.760   0.948
   14DSPC   C3B  194   5.876   7.152   1.092
   14DSPC   C4B  195   5.989   0.096   1.195
   14DSPC   C5B  196   6.226   0.475   1.023
   15DSPC   NC3  197   2.693   5.349   1.508
   15DSPC   PO4  198   2.295   5.478   1.389
   15DSPC   GL1  199   2.261   5.350   1.773
   15DSPC   GL2  200   2.289   5.030   1.651
   15DSPC   C1A  201   1.978   5.529   2.053
   15DSPC   C2A  202   1.563   5.613   2.044
   15DSPC   C3A  203   1.113   5.677   1.957
   15DSPC   C4A  204   0.876   5.422   1.638
   15DSPC   C5A  205   1.141   5.281   1.303
   15DSPC   C1B  206   2.068   4.688   1.829
   15DSPC   C2B  207   1.665   4.574   1.765
   15DSPC   C3B  208   1.242   4.457   1.710
   15DSPC   C4B  209   0.843   4.458   1.459
   15DSPC   C5B  210   0.578   4.571   1.082
   16DSPC   NC3  211   1.620   4.014   2.590
   16DSPC   PO4  212   1.675   3.711   2.951
   16DSPC   GL1  213   1.703   4.207   3.026
   16DSPC   GL2  214   1.466   4.454   2.822
   16DSPC   C1A  215   2.145   4.425   3.101
   16DSPC   C2A  216   2.385   4.825   3.061
   16DSPC   C3A  217   2.479   5.243   2.864
   16DSPC   C4A  218   2.559   5.701   2.777
   16DSPC   C5A  219   2.389   6.112   2.784
   16DSPC   C1B  220   1.391   4.898   3.034
   16DSPC   C2B  221   1.734   5.226   3.145
   16DSPC   C3B  222   1.785   5.603   3.386
   16DSPC   C4B  223   1.501   5.969   3.458
   16DSPC   C5B  224   1.303   6.331   3.696
   17DSPC   NC3  225   6.437   0.407   7.209
   17DSPC   PO4  226   6.359   0.551   0.134
   17DSPC   GL1  227   6.457   0.193   0.418
   17DSPC   GL2  228   6.477   7.332   0.469
   17DSPC   C1A  229   6.603   0.166   0.860
   17DSPC   C2A  230   6.739   0.443   1.222
   17DSPC   C3A  231   6.698   0.494   1.694
   17DSPC   C4A  232   6.349   0.389   2.018
   17DSPC   C5A  233   6.013   0.157   2.187
   17DSPC   C1B  234   6.363   7.221   0.936
   17DSPC   C2B  235   6.269   7.083   1.397
   17DSPC   C3B  236   6.303   7.070   1.855
   17DSPC   C4B  237   6.025   7.142   2.189
   17DSPC   C5B  238   5.639   6.944   2.246
   18DSPC   NC3  239   1.253   0.076   4.946
   18DSPC   PO4  240   1.649   7.477   5.192
   18DSPC   GL1  241   1.741   0.175   5.596
   18DSPC   GL2  242   1.979   0.439   5.686
   18DSPC   C1A  243   1.945   0.016   5.971
   18DSPC   C2A  244   2.270   7.414   6.223
   18DSPC   C3A  245   2.607   7.189   6.371
   18DSPC   C4A  246   2.995   7.347   6.522
   18DSPC   C5A  247   3.189   0.242   6.416
   18DSPC   C1B  248   2.351   0.708   5.685
   18DSPC   C2B  249   2.790   0.673   5.849
   18DSPC   C3B  250   3.152   0.684   6.153
   18DSPC   C4B  251   3.421   1.073   6.290
   18DSPC   C5B  252   3.659   1.470   6.155
   19DSPC   NC3  253   6.054   4.367   7.189
   19DSPC   PO4  254   5.703   4.425   6.844
   19DSPC   GL1  255   5.453   4.219   6.501
   19DSPC   GL2  256   5.469   3.932   6.694
   19DSPC   C1A  257   5.412   3.976   6.072
   19DSPC   C2A  258   5.485   3.528   5.907
   19DSPC   C3A  259   5.596   3.067   5.872
   19DSPC   C4A  260   5.858   2.848   6.193
   19DSPC   C5A  261   5.809   2.872   6.649
   19DSPC   C1B  262   5.072   4.049   6.944
   19DSPC   C2B  263   4.966   3.806   7.366
   19DSPC   C3B  264   4.978   3.336   7.474
   19DSPC   C4B  265   4.835   2.918   0.055
   19DSPC   C5B  266   4.816   2.482   7.474
   20DSPC   NC3  267   3.228   7.357   3.178
   20DSPC   PO4  268   3.184   0.313   3.111
   20DSPC   GL1  269   2.836   0.100   3.319
   20DSPC   GL2  270   2.910   7.413   3.619
   20DSPC   C1A  271   2.399   0.012   3.461
   20DSPC   C2A  272   2.051   7.358   3.756
   20DSPC   C3A  273   1.577   7.317   3.673
   20DSPC   C4A  274   1.382   6.903   3.695
   20DSPC   C5A  275   1.659   6.625   3.906
   20DSPC   C1B  276   2.800   7.247   4.047
   20DSPC   C2B  277   2.388   7.225   4.238
   20DSPC   C3B  278   2.072   7.321   4.551
   20DSPC   C4B  279   1.717   7.067   4.650
   20DSPC   C5B  280   1.615   6.654   4.482
   21DSPC   NC3  281   4.492   7.212   6.940
   21DSPC   PO4  282   4.395   0.057   6.650
   21DSPC   GL1  283   3.950   7.463   6.587
   21DSPC   GL2  284   3.848   7.101   6.512
   21DSPC   C1A  285   3.673   0.186   6.276
   21DSPC   C2A  286   3.343   0.172   5.936
   21DSPC   C3A  287   3.251   7.382   5.565
   21DSPC   C4A  288   3.332   7.216   5.130
   21DSPC   C5A  289   3.049   6.908   4.924
   21DSPC   C1B  290   3.585   6.751   6.343
   21DSPC   C2B  291   3.304   6.472   6.133
   21DSPC   C3B  292   2.984   6.628   5.837
   21DSPC   C4B  293   2.703   6.409   5.626
   21DSPC   C5B  294   2.740   6.016   5.453
   22DSPC   NC3  295   5.157   3.842   3.447
   22DSPC   PO4  296   5.394   3.507   3.676
   22DSPC   GL1  297   5.497   3.773   3.998
   22DSPC   GL2  298   5.303   4.019   3.915
   22DSPC   C1A  299   5.796   4.084   4.118
   22DSPC   C2A  300   5.991   4.471   3.983
   22DSPC   C3A  301   6.160   4.865   3.997
   22DSPC   C4A  302   6.046   5.281   3.850
   22DSPC   C5A  303   6.005   5.653   4.104
   22DSPC   C1B  304   5.069   4.383   4.121
   22DSPC   C2B  305   5.004   4.770   4.366
   22DSPC   C3B  306   4.725   5.140   4.466
   22DSPC   C4B  307   4.418   5.518   4.317
   22DSPC   C5B  308   4.062   5.853   4.224
   23DSPC   NC3  309   3.018   6.868   6.298
   23DSPC   PO4  310   2.980   6.666   6.683
   23DSPC   GL1  311   3.080   6.204   6.559
   23DSPC   GL2  312   2.884   5.937   6.400
   23DSPC   C1A  313   3.253   5.761   6.706
   23DSPC   C2A  314   3.233   5.286   6.799
   23DSPC   C3A  315   3.078   4.882   6.600
   23DSPC   C4A  316   2.711   4.589   6.625
   23DSPC   C5A  317   2.530   4.398   7.001
   23DSPC   C1B  318   2.838   5.475   6.520
   23DSPC   C2B  319   2.562   5.084   6.580
   23DSPC   C3B  320   2.212   4.803   6.435
   23DSPC   C4B  321   1.879   4.458   6.367
   23DSPC   C5B  322   1.823   4.078   6.644
   24DSPC   NC3  323   5.867   3.694   3.709
   24DSPC   PO4  324   5.633   4.042   3.506
   24DSPC   GL1  325   6.059   4.120   3.717
   24DSPC   GL2  326   6.259   3.928   3.996
   24DSPC   C1A  327   6.489   4.283   3.716
   24DSPC   C2A  328   6.873   4.228   3.978
   24DSPC   C3A  329   7.134   4.070   4.343
   24DSPC   C4A  330   7.227   3.788   4.728
   24DSPC   C5A  331   0.097   3.668   4.999
   24DSPC   C1B  332   6.668   3.845   4.275
   24DSPC   C2B  333   7.079   3.528   4.312
   24DSPC   C3B  334   7.413   3.147   4.290
   24DSPC   C4B  335   0.284   3.035   4.566
   24DSPC   C5B  336   0.386   2.716   4.909
   25DSPC   NC3  337   5.661   5.947   3.134
   25DSPC   PO4  338   5.828   6.344   2.901
   25DSPC   GL1  339   5.628   6.710   2.677
   25DSPC   GL2  340   5.813   7.002   2.701
   25DSPC   C1A  341   5.310   7.076   2.632
   25DSPC   C2A  342   5.052   7.392   2.852
   25DSPC   C3A  343   5.171   0.169   3.199
   25DSPC   C4A  344   5.398   0.567   3.174
   25DSPC   C5A  345   5.753   0.749   3.363
   25DSPC   C1B  346   5.712   7.399   2.516
   25DSPC   C2B  347   5.908   0.285   2.664
   25DSPC   C3B  348   5.761   0.671   2.832
   25DSPC   C4B  349   5.711   1.082   2.997
   25DSPC   C5B  350   6.079   1.271   3.256
   26DSPC   NC3  351   7.436   2.443   0.848
   26DSPC   PO4  352   0.235   2.805   0.733
   26DSPC   GL1  353   0.477   3.191   0.625
   26DSPC   GL2  354   0.492   3.237   0.270
   26DSPC   C1A  355   0.610   3.648   0.579
   26DSPC   C2A  356   0.677   4.106   0.734
   26DSPC   C3A  357   0.958   4.478   0.755
   26DSPC   C4A  358   1.382   4.626   0.702
   26DSPC   C5A  359   1.748   4.480   0.437
   26DSPC   C1B  360   0.800   3.468   0.001
   26DSPC   C2B  361   0.941   3.599   7.048
   26DSPC   C3B  362   1.123   3.688   6.601
   26DSPC   C4B  363   1.513   3.751   6.347
   26DSPC   C5B  364   1.887   3.957   6.154
   27DSPC   NC3  365   7.389   4.861   0.538
   27DSPC   PO4  366   7.032   4.581   0.385
   27DSPC   GL1  367   6.652   4.446   0.191
   27DSPC   GL2  368   6.527   4.750   0.339
   27DSPC   C1A  369   6.456   4.078   7.445
   27DSPC   C2A  370   6.041   3.936   0.042
   27DSPC   C3A  371   5.785   3.654   0.277
   27DSPC   C4A  372   5.581   3.774   0.673
   27DSPC   C5A  373   5.686   4.100   1.001
   27DSPC   C1B  374   6.404   4.499   0.694
   27DSPC   C2B  375   6.137   4.365   1.027
   27DSPC   C3B  376   5.787   4.623   1.154
   27DSPC   C4B  377   5.615   5.059   1.236
   27DSPC   C5B  378   5.329   5.391   1.400
   28DSPC   NC3  379   5.098   5.183   5.438
   28DSPC   PO4  380   5.159   5.659   5.333
   28DSPC   GL1  381   5.193   6.134   5.209
   28DSPC   GL2  382   5.015   6.419   5.395
   28DSPC   C1A  383   5.312   6.502   4.918
   28DSPC   C2A  384   5.325   6.713   4.488
   28DSPC   C3A  385   5.202   7.043   4.186
   28DSPC   C4A  386   4.971   7.450   4.170
   28DSPC   C5A  387   4.653   0.275   4.039
   28DSPC   C1B  388   4.763   6.767   5.639
   28DSPC   C2B  389   4.500   7.169   5.639
   28DSPC   C3B  390   4.359   0.117   5.645
   28DSPC   C4B  391   4.174   0.512   5.523
   28DSPC   C5B  392   3.768   0.693   5.517
   29DSPC   NC3  393   2.065   3.219   2.535
   29DSPC   PO4  394   1.993   3.682   2.500
   29DSPC   GL1  395   2.109   3.530   2.927
   29DSPC   GL2  396   1.876   3.232   3.035
   29DSPC   C1A  397   2.267   3.798   3.328
   29DSPC   C2A  398   2.071   3.698   3.776
   29DSPC   C3A  399   1.662   3.485   3.891
   29DSPC   C4A  400   1.266   3.222   3.791
   29DSPC   C5A  401   1.003   2.893   4.000
   29DSPC   C1B  402   1.563   3.059   3.390
   29DSPC   C2B  403   1.384   2.712   3.706
   29DSPC   C3B  404   1.160   2.334   3.940
   29DSPC   C4B  405   0.842   1.968   3.963
   29DSPC   C5B  406   0.583   1.734   4.277
   30DSPC   NC3  407   4.084   5.255   4.625
   30DSPC   PO4  408   3.893   5.598   4.837
   30DSPC   GL1  409   4.320   5.367   5.000
   30DSPC   GL2  410   4.379   4.962   4.978
   30DSPC   C1A  411   4.489   5.256   5.388
   30DSPC   C2A  412   4.275   5.202   5.769
   30DSPC   C3A  413   4.342   4.919   6.110
   30DSPC   C4A  414   4.774   4.709   6.230
   30DSPC   C5A  415   5.007   4.449   6.566
   30DSPC   C1B  416   4.748   4.825   5.299
   30DSPC   C2B  417   5.017   4.615   5.620
   30DSPC   C3B  418   5.462   4.627   5.664
   30DSPC   C4B  419   5.736   4.303   5.801
   30DSPC   C5B  420   5.838   4.205   6.236
   31DSPC   NC3  421   5.840   4.206   3.072
   31DSPC   PO4  422   6.118   3.909   3.308
   31DSPC   GL1  423   6.198   4.375   3.366
   31DSPC   GL2  424   5.906   4.506   3.481
   31DSPC   C1A  425   6.255   4.859   3.484
   31DSPC   C2A  426   5.981   5.234   3.362
   31DSPC   C3A  427   5.521   5.284   3.444
   31DSPC   C4A  428   5.107   5.283   3.680
   31DSPC   C5A  429   4.710   5.275   3.949
   31DSPC   C1B  430   5.761   4.886   3.693
   31DSPC   C2B  431   5.409   4.924   3.943
   31DSPC   C3B  432   4.984   4.821   3.856
   31DSPC   C4B  433   4.616   4.784   4.040
   31DSPC   C5B  434   4.305   5.037   4.212
   32DSPC   NC3  435   1.240   2.174   4.612
   32DSPC   PO4  436   1.283   2.631   4.527
   32DSPC   GL1  437   0.794   2.696   4.412
   32DSPC   GL2  438   0.423   2.568   4.413
   32DSPC   C1A  439   0.513   2.943   4.112
   32DSPC   C2A  440   0.568   2.956   3.707
   32DSPC   C3A  441   0.363   2.596   3.541
   32DSPC   C4A  442   0.133   2.213   3.660
   32DSPC   C5A  443   7.466   1.815   3.496
   32DSPC   C1B  444   0.312   2.153   4.158
   32DSPC   C2B  445   7.434   1.904   4.015
   32DSPC   C3B  446   7.031   1.751   3.784
   32DSPC   C4B  447   6.574   1.578   3.694
   32DSPC   C5B  448   6.152   1.308   3.771
   33DSPC   NC3  449   7.485   6.629   0.969
   33DSPC   PO4  450   7.349   6.178   0.981
   33DSPC   GL1  451   0.136   6.298   1.316
   33DSPC   GL2  452   0.089   6.606   1.480
   33DSPC   C1A  453   0.261   6.210   1.748
   33DSPC   C2A  454   0.635   6.311   1.923
   33DSPC   C3A  455   1.008   6.169   1.929
   33DSPC   C4A  456   1.395   6.100   2.053
   33DSPC   C5A  457   1.741   6.413   2.023
   33DSPC   C1B  458   0.502   6.717   1.669
   33DSPC   C2B  459   0.978   6.624   1.684
   33DSPC   C3B  460   1.468   6.702   1.671
   33DSPC   C4B  461   1.818   7.003   1.555
   33DSPC   C5B  462   2.279   6.994   1.676
   34DSPC   NC3  463   0.904   3.241   5.834
   34DSPC   PO4  464   1.000   2.766   5.760
   34DSPC   GL1  465   1.033   2.317   5.596
   34DSPC   GL2  466   1.313   2.241   5.377
   34DSPC   C1A  467   0.957   1.857   5.529
   34DSPC   C2A  468   0.693   1.641   5.189
   34DSPC   C3A  469   0.549   1.891   4.794
   34DSPC   C4A  470   0.214   2.222   4.690
   34DSPC   C5A  471   7.443   2.643   4.669
   34DSPC   C1B  472   1.020   2.493   5.125
   34DSPC   C2B  473   0.744   2.374   4.786
   34DSPC   C3B  474   0.766   2.224   4.378
   34DSPC   C4B  475   0.667   2.465   3.965
   34DSPC   C5B  476   0.890   2.582   3.576
   35DSPC   NC3  477   2.411   1.821   6.996
   35DSPC   PO4  478   1.941   1.898   6.994
   35DSPC   GL1  479   1.746   1.884   6.582
   35DSPC   GL2  480   1.709   1.535   6.516
   35DSPC   C1A  481   1.386   1.958   6.303
   35DSPC   C2A  482   1.334   2.015   5.851
   35DSPC   C3A  483   1.544   1.796   5.515
   35DSPC   C4A  484   1.809   1.421   5.485
   35DSPC   C5A  485   1.880   0.959   5.549
   35DSPC   C1B  486   1.961   1.140   6.464
   35DSPC   C2B  487   2.169   0.717   6.480
   35DSPC   C3B  488   2.227   0.418   6.159
   35DSPC   C4B  489   2.424   0.215   5.816
   35DSPC   C5B  490   2.858   0.178   5.712
   36DSPC   NC3  491   4.028   2.694   6.369
   36DSPC   PO4  492   3.961   3.001   6.057
   36DSPC   GL1  493   3.625   2.654   6.115
   36DSPC   GL2  494   3.703   2.287   6.177
   36DSPC   C1A  495   3.240   2.398   6.017
   36DSPC   C2A  496   3.175   1.987   5.757
   36DSPC   C3A  497   3.330   1.529   5.753
   36DSPC   C4A  498   3.207   1.071   5.820
   36DSPC   C5A  499   3.273   0.618   5.662
   36DSPC   C1B  500   3.377   1.917   6.209
   36DSPC   C2B  501   3.135   1.498   6.223
   36DSPC   C3B  502   2.870   1.092   6.251
   36DSPC   C4B  503   2.675   0.654   6.351
   36DSPC   C5B  504   2.715   0.200   6.228
   37DSPC   NC3  505   1.265   3.985   2.995
   37DSPC   PO4  506   1.269   4.330   3.274
   37DSPC   GL1  507   1.683   4.591   3.249
   37DSPC   GL2  508   1.851   4.771   2.940
   37DSPC   C1A  509   2.056   4.751   3.467
   37DSPC   C2A  510   2.463   4.477   3.492
   37DSPC   C3A  511   2.731   4.118   3.316
   37DSPC   C4A  512   3.050   4.016   2.989
   37DSPC   C5A  513   3.122   3.971   2.523
   37DSPC   C1B  514   1.944   4.438   2.628
   37DSPC   C2B  515   2.255   4.470   2.261
   37DSPC   C3B  516   2.733   4.426   2.244
   37DSPC   C4B  517   3.023   4.482   1.862
   37DSPC   C5B  518   3.192   4.654   1.460
   38DSPC   NC3  519   3.411   5.612   4.186
   38DSPC   PO4  520   3.081   5.919   4.364
   38DSPC   GL1  521   2.892   6.249   4.637
   38DSPC   GL2  522   2.579   6.266   4.426
   38DSPC   C1A  523   2.604   6.618   4.778
   38DSPC   C2A  524   2.223   6.819   4.560
   38DSPC   C3A  525   1.945   6.959   4.189
   38DSPC   C4A  526   1.496   7.031   4.175
   38DSPC   C5A  527   1.166   6.919   4.514
   38DSPC   C1B  528   2.191   6.294   4.696
   38DSPC   C2B  529   1.718   6.193   4.656
   38DSPC   C3B  530   1.243   6.331   4.633
   38DSPC   C4B  531   0.785   6.299   4.795
   38DSPC   C5B  532   0.376   6.133   4.985
   39DSPC   NC3  533   2.927   4.366   4.523
   39DSPC   PO4  534   2.881   3.968   4.367
   39DSPC   GL1  535   3.306   4.079   4.412
   39DSPC   GL2  536   3.352   4.153   4.773
   39DSPC   C1A  537   3.644   4.090   4.114
   39DSPC   C2A  538   3.964   4.230   3.959
   39DSPC   C3A  539   4.203   4.529   4.164
   39DSPC   C4A  540   4.477   4.679   4.521
   39DSPC   C5A  541   4.797   4.695   4.828
   39DSPC   C1B  542   3.630   4.496   4.972
   39DSPC   C2B  543   3.878   4.493   5.323
   39DSPC   C3B  544   4.137   4.346   5.672
   39DSPC   C4B  545   4.545   4.535   5.796
   39DSPC   C5B  546   4.713   4.973   5.777
   40DSPC   NC3  547   5.204   0.147   4.635
   40DSPC   PO4  548   4.961   0.232   5.051
   40DSPC   GL1  549   4.790   0.332   5.499
   40DSPC   GL2  550   4.867   0.084   5.770
   40DSPC   C1A  551   4.570   0.526   5.872
   40DSPC   C2A  552   4.142   0.468   6.038
   40DSPC   C3A  553   3.834   0.243   5.796
   40DSPC   C4A  554   3.704   7.314   5.804
   40DSPC   C5A  555   3.857   6.879   5.912
   40DSPC   C1B  556   4.862   7.162   5.993
   40DSPC   C2B  557   4.589   6.778   6.149
   40DSPC   C3B  558   4.364   6.345   6.079
   40DSPC   C4B  559   4.358   5.868   6.083
   40DSPC   C5B  560   4.517   5.422   6.190
   41DSPC   NC3  561   2.804   3.515   4.546
   41DSPC   PO4  562   2.408   3.722   4.394
   41DSPC   GL1  563   2.718   3.648   4.057
   41DSPC   GL2  564   3.076   3.580   4.100
   41DSPC   C1A  565   2.958   3.805   3.675
   41DSPC   C2A  566   3.263   4.029   3.805
   41DSPC   C3A  567   3.269   4.418   4.039
   41DSPC   C4A  568   3.677   4.603   4.116
   41DSPC   C5A  569   3.913   4.904   3.958
   41DSPC   C1B  570   3.502   3.626   4.105
   41DSPC   C2B  571   3.960   3.703   4.202
   41DSPC   C3B  572   4.330   3.920   4.054
   41DSPC   C4B  573   4.576   4.217   4.329
   41DSPC   C5B  574   4.512   4.237   4.791
   42DSPC   NC3  575   6.939   4.655   7.383
   42DSPC   PO4  576   7.372   4.797   0.031
   42DSPC   GL1  577   0.267   4.848   0.256
   42DSPC   GL2  578   0.260   5.188   0.367
   42DSPC   C1A  579   0.590   4.832   0.599
   42DSPC   C2A  580   1.013   5.002   0.656
   42DSPC   C3A  581   1.106   5.389   0.817
   42DSPC   C4A  582   1.217   5.817   0.733
   42DSPC   C5A  583   1.339   6.257   0.640
   42DSPC   C1B  584   0.080   5.358   0.756
   42DSPC   C2B  585   0.257   5.668   1.034
   42DSPC   C3B  586   0.430   5.898   1.370
   42DSPC   C4B  587   0.622   6.291   1.389
   42DSPC   C5B  588   0.498   6.657   1.152
   43DSPC   NC3  589   4.001   2.550   5.846
   43DSPC   PO4  590   4.135   2.492   5.374
   43DSPC   GL1  591   4.533   2.710   5.340
   43DSPC   GL2  592   4.681   2.396   5.371
   43DSPC   C1A  593   4.996   2.790   5.344
   43DSPC   C2A  594   5.415   2.639   5.435
   43DSPC   C3A  595   5.645   2.546   5.811
   43DSPC   C4A  596   6.084   2.507   5.878
   43DSPC   C5A  597   6.440   2.289   5.699
   43DSPC   C1B  598   5.109   2.286   5.239
   43DSPC   C2B  599   5.455   2.056   5.411
   43DSPC   C3B  600   5.704   1.722   5.218
   43DSPC   C4B  601   5.712   1.466   4.798
   43DSPC   C5B  602   5.790   1.103   4.496
   44DSPC   NC3  603   5.858   2.390   6.930
   44DSPC   PO4  604   5.598   2.038   6.882
   44DSPC   GL1  605   5.210   2.135   7.106
   44DSPC   GL2  606   5.276   2.262   7.450
   44DSPC   C1A  607   4.821   2.016   7.294
   44DSPC   C2A  608   4.496   1.718   7.220
   44DSPC   C3A  609   4.296   1.461   0.053
   44DSPC   C4A  610   4.356   1.051   0.280
   44DSPC   C5A  611   4.621   0.849   0.606
   44DSPC   C1B  612   5.307   2.113   0.410
   44DSPC   C2B  613   5.297   1.816   0.802
   44DSPC   C3B  614   5.558   1.549   1.123
   44DSPC   C4B  615   5.768   1.097   1.195
   44DSPC   C5B  616   5.782   0.593   1.291
   45DSPC   NC3  617   3.329   5.780   6.166
   45DSPC   PO4  618   3.508   5.385   6.194
   45DSPC   GL1  619   3.665   5.577   5.832
   45DSPC   GL2  620   3.757   5.255   5.713
   45DSPC   C1A  621   4.099   5.667   5.668
   45DSPC   C2A  622   4.596   5.611   5.720
   45DSPC   C3A  623   4.965   5.379   5.925
   45DSPC   C4A  624   5.181   4.943   5.986
   45DSPC   C5A  625   5.257   4.477   6.110
   45DSPC   C1B  626   3.921   4.846   5.713
   45DSPC   C2B  627   4.270   4.787   5.465
   45DSPC   C3B  628   4.429   4.448   5.240
   45DSPC   C4B  629   4.882   4.324   5.199
   45DSPC   C5B  630   5.255   4.184   5.491
   46DSPC   NC3  631   4.812   1.626   0.900
   46DSPC   PO4  632   4.946   1.277   1.152
   46DSPC   GL1  633   4.545   1.239   0.874
   46DSPC   GL2  634   4.392   1.460   0.586
   46DSPC   C1A  635   4.161   1.016   0.759
   46DSPC   C2A  636   4.121   0.608   0.547
   46DSPC   C3A  637   4.072   0.132   0.595
   46DSPC   C4A  638   3.789   7.267   0.498
   46DSPC   C5A  639   3.476   7.097   0.270
   46DSPC   C1B  640   3.934   1.332   0.409
   46DSPC   C2B  641   3.517   1.079   0.297
   46DSPC   C3B  642   3.171   0.787   0.100
   46DSPC   C4B  643   2.812   0.469   0.030
   46DSPC   C5B  644   2.554   0.068   0.156
   47DSPC   NC3  645   3.575   6.982   0.910
   47DSPC   PO4  646   3.696   6.895   1.357
   47DSPC   GL1  647   3.354   6.712   1.624
   47DSPC   GL2  648   3.326   6.387   1.779
   47DSPC   C1A  649   2.907   6.640   1.659
   47DSPC   C2A  650   2.645   6.826   1.366
   47DSPC   C3A  651   2.282   6.646   1.214
   47DSPC   C4A  652   2.254   6.222   1.324
   47DSPC   C5A  653   2.572   6.004   1.567
   47DSPC   C1B  654   3.088   6.036   1.629
   47DSPC   C2B  655   2.912   5.665   1.868
   47DSPC   C3B  656   2.662   5.278   2.020
   47DSPC   C4B  657   2.550   4.827   2.012
   47DSPC   C5B  658   2.513   4.439   1.779
   48DSPC   NC3  659   0.727   0.441   3.197
   48DSPC   PO4  660   0.959   0.583   2.819
   48DSPC   GL1  661   0.671   0.898   2.674
   48DSPC   GL2  662   0.944   1.092   2.528
   48DSPC   C1A  663   0.485   1.268   2.457
   48DSPC   C2A  664   0.753   1.564   2.236
   48DSPC   C3A  665   1.150   1.792   2.082
   48DSPC   C4A  666   1.437   2.072   1.840
   48DSPC   C5A  667   1.790   2.213   1.555
   48DSPC   C1B  668   1.362   1.017   2.453
   48DSPC   C2B  669   1.691   1.114   2.177
   48DSPC   C3B  670   2.057   1.397   2.114
   48DSPC   C4B  671   2.368   1.722   1.951
   48DSPC   C5B  672   2.812   1.689   1.892
   49DSPC   NC3  673   2.011   6.423   4.234
   49DSPC   PO4  674   2.371   6.468   3.976
   49DSPC   GL1  675   2.211   6.032   4.027
   49DSPC   GL2  676   1.939   5.913   4.267
   49DSPC   C1A  677   2.022   5.656   3.829
   49DSPC   C2A  678   2.056   5.183   3.803
   49DSPC   C3A  679   2.424   4.879   3.811
   49DSPC   C4A  680   2.614   4.596   4.139
   49DSPC   C5A  681   2.398   4.405   4.505
   49DSPC   C1B  682   1.776   5.457   4.223
   49DSPC   C2B  683   1.664   5.007   4.140
   49DSPC   C3B  684   1.544   4.604   4.370
   49DSPC   C4B  685   1.536   4.186   4.605
   49DSPC   C5B  686   1.339   3.816   4.832
   50DSPC   NC3  687   2.605   6.880   5.440
   50DSPC   PO4  688   2.439   7.183   5.133
   50DSPC   GL1  689   2.863   7.227   5.254
   50DSPC   GL2  690   2.914   7.456   4.970
   50DSPC   C1A  691   3.129   6.880   5.431
   50DSPC   C2A  692   3.415   6.639   5.166
   50DSPC   C3A  693   3.402   6.288   4.865
   50DSPC   C4A  694   3.669   6.160   4.497
   50DSPC   C5A  695   3.846   6.401   4.157
   50DSPC   C1B  696   3.055   7.423   4.513
   50DSPC   C2B  697   3.309   7.257   4.152
   50DSPC   C3B  698   3.735   7.327   3.923
   50DSPC   C4B  699   3.754   7.417   3.452
   50DSPC   C5B  700   3.875   0.221   3.126
   51DSPC   NC3  701   4.694   2.977   5.731
   51DSPC   PO4  702   4.460   2.860   6.117
   51DSPC   GL1  703   4.375   2.465   6.178
   51DSPC   GL2  704   4.598   2.403   6.412
   51DSPC   C1A  705   4.148   2.155   6.383
   51DSPC   C2A  706   3.804   1.866   6.472
   51DSPC   C3A  707   3.460   1.600   6.621
   51DSPC   C4A  708   3.353   1.450   7.026
   51DSPC   C5A  709   3.466   1.506   7.466
   51DSPC   C1B  710   4.327   2.469   6.756
   51DSPC   C2B  711   4.396   2.288   7.160
   51DSPC   C3B  712   4.381   2.082   0.044
   51DSPC   C4B  713   4.608   1.822   0.284
   51DSPC   C5B  714   5.021   1.676   0.384
   52DSPC   NC3  715   4.073   1.070   2.812
   52DSPC   PO4  716   4.508   1.230   2.860
   52DSPC   GL1  717   4.402   0.908   3.156
   52DSPC   GL2  718   4.361   0.642   2.920
   52DSPC   C1A  719   4.167   0.552   3.389
   52DSPC   C2A  720   3.754   0.403   3.612
   52DSPC   C3A  721   3.373   0.119   3.725
   52DSPC   C4A  722   3.342   7.146   3.659
   52DSPC   C5A  723   3.552   6.823   3.929
   52DSPC   C1B  724   4.412   0.199   3.043
   52DSPC   C2B  725   4.241   7.350   3.323
   52DSPC   C3B  726   4.006   6.999   3.597
   52DSPC   C4B  727   3.879   6.528   3.655
   52DSPC   C5B  728   3.846   6.056   3.780
   53DSPC   NC3  729   0.495   0.861   3.932
   53DSPC   PO4  730   0.948   0.765   4.011
   53DSPC   GL1  731   1.134   0.583   3.637
   53DSPC   GL2  732   1.188   0.644   3.290
   53DSPC   C1A  733   1.573   0.477   3.582
   53DSPC   C2A  734   1.853   0.186   3.416
   53DSPC   C3A  735   1.972   7.317   3.249
   53DSPC   C4A  736   1.949   6.941   3.054
   53DSPC   C5A  737   1.613   6.732   2.852
   53DSPC   C1B  738   1.204   0.186   3.398
   53DSPC   C2B  739   1.053   7.286   3.244
   53DSPC   C3B  740   1.198   7.088   2.845
   53DSPC   C4B  741   1.103   6.908   2.461
   53DSPC   C5B  742   0.799   6.572   2.333
   54DSPC   NC3  743   3.360   6.192   4.037
   54DSPC   PO4  744   3.217   5.818   3.764
   54DSPC   GL1  745   3.002   5.687   3.343
   54DSPC   GL2  746   2.890   5.936   3.079
   54DSPC   C1A  747   2.977   5.441   2.931
   54DSPC   C2A  748   2.832   5.367   2.494
   54DSPC   C3A  749   2.380   5.427   2.399
   54DSPC   C4A  750   2.194   5.809   2.424
   54DSPC   C5A  751   1.853   5.989   2.239
   54DSPC   C1B  752   3.068   5.862   2.630
   54DSPC   C2B  753   3.124   6.034   2.174
   54DSPC   C3B  754   2.772   6.243   1.960
   54DSPC   C4B  755   2.438   6.483   1.720
   54DSPC   C5B  756   2.009   6.554   1.633
   55DSPC   NC3  757   3.520   4.974   4.783
   55DSPC   PO4  758   3.440   5.322   4.965
   55DSPC   GL1  759   3.624   5.343   4.523
   55DSPC   GL2  760   3.498   5.073   4.263
   55DSPC   C1A  761   3.887   5.381   4.157
   55DSPC   C2A  762   4.190   5.366   3.845
   55DSPC   C3A  763   4.377   5.009   3.650
   55DSPC   C4A  764   4.610   4.654   3.462
   55DSPC   C5A  765   4.454   4.190   3.386
   55DSPC   C1B  766   3.411   4.873   3.807
   55DSPC   C2B  767   3.591   4.454   3.637
   55DSPC   C3B  768   3.429   4.120   3.349
   55DSPC   C4B  769   3.590   3.891   3.045
   55DSPC   C5B  770   3.397   3.608   2.757
   56DSPC   NC3  771   5.481   2.445   2.655
   56DSPC   PO4  772   5.510   2.350   2.209
   56DSPC   GL1  773   5.555   1.861   2.109
   56DSPC   GL2  774   5.344   1.542   2.229
   56DSPC   C1A  775   5.829   1.465   2.109
   56DSPC   C2A  776   5.910   1.015   2.070
   56DSPC   C3A  777   5.836   0.656   2.318
   56DSPC   C4A  778   5.543   0.327   2.247
   56DSPC   C5A  779   5.227   0.029   2.366
   56DSPC   C1B  780   5.108   1.149   2.395
   56DSPC   C2B  781   4.882   0.731   2.309
   56DSPC   C3B  782   4.507   0.454   2.460
   56DSPC   C4B  783   4.103   0.283   2.652
   56DSPC   C5B  784   4.047   7.347   2.833
   57DSPC   NC3  785   0.271   2.077   3.132
   57DSPC   PO4  786   0.287   1.894   2.679
   57DSPC   GL1  787   0.270   1.710   2.238
   57DSPC   GL2  788   7.418   1.646   2.098
   57DSPC   C1A  789   0.306   1.336   1.987
   57DSPC   C2A  790   0.146   0.941   1.925
   57DSPC   C3A  791   7.242   0.897   1.714
   57DSPC   C4A  792   6.794   1.009   1.694
   57DSPC   C5A  793   6.411   0.877   1.913
   57DSPC   C1B  794   7.040   1.400   1.950
   57DSPC   C2B  795   6.567   1.384   1.990
   57DSPC   C3B  796   6.194   1.300   1.750
   57DSPC   C4B  797   6.016   0.910   1.601
   57DSPC   C5B  798   5.863   0.526   1.835
   58DSPC   NC3  799   3.779   1.841   4.555
   58DSPC   PO4  800   3.869   1.862   4.058
   58DSPC   GL1  801   4.026   1.923   3.616
   58DSPC   GL2  802   4.247   1.645   3.555
   58DSPC   C1A  803   4.061   2.057   3.158
   58DSPC   C2A  804   4.209   1.975   2.693
   58DSPC   C3A  805   4.573   1.947   2.378
   58DSPC   C4A  806   4.909   2.193   2.512
   58DSPC   C5A  807   5.084   2.228   2.922
   58DSPC   C1B  808   4.530   1.882   3.297
   58DSPC   C2B  809   4.690   1.871   2.874
   58DSPC   C3B  810   4.978   1.637   2.609
   58DSPC   C4B  811   5.385   1.451   2.739
   58DSPC   C5B  812   5.758   1.584   3.006
   59DSPC   NC3  813   1.516   5.561   5.937
   59DSPC   PO4  814   1.146   5.811   5.765
   59DSPC   GL1  815   0.777   6.095   5.832
   59DSPC   GL2  816   0.770   6.443   5.739
   59DSPC   C1A  817   0.477   6.283   6.140
   59DSPC   C2A  818   0.454   6.546   6.498
   59DSPC   C3A  819   0.694   6.898   6.586
   59DSPC   C4A  820   1.028   7.156   6.746
   59DSPC   C5A  821   1.425   7.399   6.760
   59DSPC   C1B  822   1.052   6.801   5.852
   59DSPC   C2B  823   1.270   7.213   5.890
   59DSPC   C3B  824   1.453   0.114   5.962
   59DSPC   C4B  825   1.707   0.465   6.098
   59DSPC   C5B  826   1.951   0.842   6.036
   60DSPC   NC3  827   5.453   2.427   6.601
   60DSPC   PO4  828   5.398   2.547   7.029
   60DSPC   GL1  829   5.241   2.740   7.381
   60DSPC   GL2  830   5.434   3.040   7.453
   60DSPC   C1A  831   5.317   2.625   0.321
   60DSPC   C2A  832   5.661   2.582   0.636
   60DSPC   C3A  833   6.046   2.444   0.885
   60DSPC   C4A  834   6.249   2.055   0.891
   60DSPC   C5A  835   6.451   1.753   1.159
   60DSPC   C1B  836   5.775   2.829   0.201
   60DSPC   C2B  837   6.149   2.674   0.433
   60DSPC   C3B  838   6.509   2.485   0.708
   60DSPC   C4B  839   6.745   2.209   1.019
   60DSPC   C5B  840   7.167   2.188   1.249
   61DSPC   NC3  841   1.724   0.082   2.148
   61DSPC   PO4  842   2.121   0.112   2.385
   61DSPC   GL1  843   2.442   7.435   2.029
   61DSPC   GL2  844   2.533   0.080   1.656
   61DSPC   C1A  845   2.749   7.136   1.806
   61DSPC   C2A  846   3.078   7.083   1.513
   61DSPC   C3A  847   3.090   6.911   1.089
   61DSPC   C4A  848   3.124   6.914   0.619
   61DSPC   C5A  849   2.962   7.165   0.277
   61DSPC   C1B  850   2.686   0.390   1.288
   61DSPC   C2B  851   2.848   0.747   0.972
   61DSPC   C3B  852   3.034   1.065   0.605
   61DSPC   C4B  853   3.044   1.267   0.162
   61DSPC   C5B  854   3.015   1.090   7.215
   62DSPC   NC3  855   5.503   4.449   3.781
   62DSPC   PO4  856   5.197   4.337   3.463
   62DSPC   GL1  857   4.876   4.150   3.183
   62DSPC   GL2  858   4.705   4.426   3.009
   62DSPC   C1A  859   4.503   3.960   2.930
   62DSPC   C2A  860   4.079   3.967   2.713
   62DSPC   C3A  861   3.654   4.027   2.561
   62DSPC   C4A  862   3.400   4.317   2.779
   62DSPC   C5A  863   2.967   4.475   2.743
   62DSPC   C1B  864   4.227   4.408   2.983
   62DSPC   C2B  865   3.893   4.463   2.653
   62DSPC   C3B  866   3.720   4.513   2.226
   62DSPC   C4B  867   3.425   4.831   2.009
   62DSPC   C5B  868   3.228   5.297   2.086
   63DSPC   NC3  869   0.947   0.199   5.883
   63DSPC   PO4  870   1.082   0.655   5.909
   63DSPC   GL1  871   1.103   0.530   5.478
   63DSPC   GL2  872   1.279   0.229   5.467
   63DSPC   C1A  873   1.193   0.720   5.053
   63DSPC   C2A  874   1.249   1.156   4.817
   63DSPC   C3A  875   1.296   1.630   4.727
   63DSPC   C4A  876   1.529   1.913   5.009
   63DSPC   C5A  877   1.948   1.821   5.171
   63DSPC   C1B  878   1.568   0.587   5.398
   63DSPC   C2B  879   2.001   0.576   5.220
   63DSPC   C3B  880   2.365   0.337   5.323
   63DSPC   C4B  881   2.796   0.509   5.346
   63DSPC   C5B  882   2.957   0.931   5.384
   64DSPC   NC3  883   2.012   4.184   3.536
   64DSPC   PO4  884   1.961   4.317   3.970
   64DSPC   GL1  885   1.647   3.970   3.893
   64DSPC   GL2  886   1.419   4.139   4.105
   64DSPC   C1A  887   1.205   3.710   3.941
   64DSPC   C2A  888   0.854   3.395   4.074
   64DSPC   C3A  889   0.795   3.151   4.453
   64DSPC   C4A  890   0.830   2.954   4.858
   64DSPC   C5A  891   1.163   3.009   5.166
   64DSPC   C1B  892   1.557   3.746   4.323
   64DSPC   C2B  893   1.652   3.444   4.658
   64DSPC   C3B  894   1.519   3.391   5.109
   64DSPC   C4B  895   1.343   3.365   5.542
   64DSPC   C5B  896   1.394   3.367   6.009
   65DSPC   NC3  897   0.171   1.721   1.655
   65DSPC   PO4  898   0.619   1.819   1.657
   65DSPC   GL1  899   0.689   1.345   1.719
   65DSPC   GL2  900   0.744   1.100   2.021
   65DSPC   C1A  901   1.026   1.056   1.603
   65DSPC   C2A  902   1.478   0.986   1.720
   65DSPC   C3A  903   1.916   1.110   1.713
   65DSPC   C4A  904   2.057   1.520   1.594
   65DSPC   C5A  905   2.228   1.940   1.507
   65DSPC   C1B  906   1.178   1.284   2.045
   65DSPC   C2B  907   1.568   1.513   1.878
   65DSPC   C3B  908   1.880   1.852   1.943
   65DSPC   C4B  909   2.145   2.218   1.932
   65DSPC   C5B  910   2.162   2.640   1.756
   66DSPC   NC3  911   6.222   6.556   3.855
   66DSPC   PO4  912   6.038   6.476   4.267
   66DSPC   GL1  913   6.179   6.027   4.319
   66DSPC   GL2  914   6.520   5.970   4.426
   66DSPC   C1A  915   6.120   5.651   4.630
   66DSPC   C2A  916   5.987   5.446   5.070
   66DSPC   C3A  917   6.055   4.973   5.186
   66DSPC   C4A  918   6.149   4.604   4.902
   66DSPC   C5A  919   6.534   4.378   4.724
   66DSPC   C1B  920   6.631   5.537   4.568
   66DSPC   C2B  921   6.809   5.159   4.755
   66DSPC   C3B  922   6.927   4.755   4.828
   66DSPC   C4B  923   7.328   4.617   5.057
   66DSPC   C5B  924   0.183   4.540   5.331
   67DSPC   NC3  925   4.592   4.053   0.146
   67DSPC   PO4  926   4.749   4.205   0.569
   67DSPC   GL1  927   4.487   3.924   0.834
   67DSPC   GL2  928   4.650   3.576   0.849
   67DSPC   C1A  929   4.182   4.015   1.201
   67DSPC   C2A  930   4.070   4.119   1.671
   67DSPC   C3A  931   3.959   4.060   2.133
   67DSPC   C4A  932   3.936   3.652   2.326
   67DSPC   C5A  933   3.849   3.253   2.109
   67DSPC   C1B  934   4.924   3.205   0.996
   67DSPC   C2B  935   5.074   2.943   1.370
   67DSPC   C3B  936   5.023   2.662   1.772
   67DSPC   C4B  937   4.780   2.331   1.997
   67DSPC   C5B  938   4.628   1.917   1.852
   68DSPC   NC3  939   7.303   5.674   2.197
   68DSPC   PO4  940   7.493   5.587   1.800
   68DSPC   GL1  941   0.282   5.741   2.101
   68DSPC   GL2  942   0.444   5.387   1.977
   68DSPC   C1A  943   0.522   6.108   2.363
   68DSPC   C2A  944   1.019   6.132   2.438
   68DSPC   C3A  945   1.484   6.263   2.513
   68DSPC   C4A  946   1.863   6.030   2.731
   68DSPC   C5A  947   2.070   5.657   2.935
   68DSPC   C1B  948   0.860   5.200   2.088
   68DSPC   C2B  949   1.228   5.318   2.287
   68DSPC   C3B  950   1.656   5.168   2.278
   68DSPC   C4B  951   1.773   4.729   2.252
   68DSPC   C5B  952   1.780   4.279   2.161
   69DSPC   NC3  953   4.045   1.992   5.441
   69DSPC   PO4  954   3.717   1.845   5.102
   69DSPC   GL1  955   3.749   1.388   5.207
   69DSPC   GL2  956   3.543   1.186   5.436
   69DSPC   C1A  957   4.061   1.125   5.408
   69DSPC   C2A  958   4.400   1.361   5.609
   69DSPC   C3A  959   4.569   1.668   5.889
   69DSPC   C4A  960   4.512   1.801   6.335
   69DSPC   C5A  961   4.554   1.952   6.751
   69DSPC   C1B  962   3.720   1.060   5.848
   69DSPC   C2B  963   3.646   0.656   6.046
   69DSPC   C3B  964   3.531   0.621   6.505
   69DSPC   C4B  965   3.389   0.923   6.840
   69DSPC   C5B  966   3.521   1.019   7.280
   70DSPC   NC3  967   0.696   7.425   0.163
   70DSPC   PO4  968   0.732   0.191   0.572
   70DSPC   GL1  969   0.824   0.484   0.955
   70DSPC   GL2  970   0.667   0.508   1.316
   70DSPC   C1A  971   0.890   0.917   1.122
   70DSPC   C2A  972   0.669   1.292   1.247
   70DSPC   C3A  973   0.311   1.547   1.134
   70DSPC   C4A  974   7.406   1.725   1.197
   70DSPC   C5A  975   6.960   1.727   1.136
   70DSPC   C1B  976   0.513   0.911   1.549
   70DSPC   C2B  977   0.143   1.220   1.497
   70DSPC   C3B  978   7.173   1.337   1.452
   70DSPC   C4B  979   6.719   1.491   1.519
   70DSPC   C5B  980   6.362   1.766   1.670
   71DSPC   NC3  981   1.659   4.883   6.604
   71DSPC   PO4  982   1.433   5.226   6.320
   71DSPC   GL1  983   1.188   5.678   6.254
   71DSPC   GL2  984   1.381   6.018   6.178
   71DSPC   C1A  985   0.897   6.065   6.317
   71DSPC   C2A  986   0.946   6.537   6.286
   71DSPC   C3A  987   1.241   6.931   6.325
   71DSPC   C4A  988   1.608   7.262   6.303
   71DSPC   C5A  989   1.860   0.141   6.474
   71DSPC   C1B  990   1.425   6.498   6.069
   71DSPC   C2B  991   1.702   6.892   5.948
   71DSPC   C3B  992   2.139   7.079   5.794
   71DSPC   C4B  993   2.579   7.228   5.842
   71DSPC   C5B  994   2.984   7.299   6.012
   72DSPC   NC3  995   2.564   1.564   2.398
   72DSPC   PO4  996   2.214   1.848   2.582
   72DSPC   GL1  997   2.115   2.255   2.394
   72DSPC   GL2  998   1.768   2.227   2.282
   72DSPC   C1A  999   2.003   2.703   2.294
   72DSPC   C2A 1000   1.879   3.017   1.967
   72DSPC   C3A 1001   2.034   3.134   1.537
   72DSPC   C4A 1002   2.171   3.118   1.077
   72DSPC   C5A 1003   2.486   3.136   0.694
   72DSPC   C1B 1004   1.685   2.523   1.943
   72DSPC   C2B 1005   1.700   2.742   1.537
   72DSPC   C3B 1006   1.633   3.053   1.184
   72DSPC   C4B 1007   1.318   3.189   0.838
   72DSPC   C5B 1008   0.953   3.250   0.523
   73DSPC   NC3 1009   4.534   0.086   6.161
   73DSPC   PO4 1010   4.205   7.321   6.218
   73DSPC   GL1 1011   4.389   7.075   6.489
   73DSPC   GL2 1012   4.700   7.193   6.457
   73DSPC   C1A 1013   4.675   6.763   6.703
   73DSPC   C2A 1014   5.039   6.749   7.006
   73DSPC   C3A 1015   5.490   6.892   7.060
   73DSPC   C4A 1016   5.948   6.939   7.151
   73DSPC   C5A 1017   6.420   6.986   7.172
   73DSPC   C1B 1018   4.994   7.201   6.781
   73DSPC   C2B 1019   5.271   7.344   7.119
   73DSPC   C3B 1020   5.637   7.298   7.435
   73DSPC   C4B 1021   5.982  -0.001   0.236
   73DSPC   C5B 1022   6.093   0.092   0.689
   74DSPC   NC3 1023   7.499   6.136   4.536
   74DSPC   PO4 1024   7.479   5.704   4.686
   74DSPC   GL1 1025   7.157   5.432   4.611
   74DSPC   GL2 1026   7.016   5.430   4.290
   74DSPC   C1A 1027   7.216   4.994   4.475
   74DSPC   C2A 1028   7.325   4.559   4.552
   74DSPC   C3A 1029   7.059   4.272   4.793
   74DSPC   C4A 1030   6.779   3.976   4.940
   74DSPC   C5A 1031   6.390   3.855   4.745
   74DSPC   C1B 1032   6.746   5.072   4.269
   74DSPC   C2B 1033   6.404   4.812   4.468
   74DSPC   C3B 1034   5.949   4.679   4.434
   74DSPC   C4B 1035   5.562   4.493   4.292
   74DSPC   C5B 1036   5.381   4.073   4.414
   75DSPC   NC3 1037   3.425   4.816   2.566
   75DSPC   PO4 1038   3.429   4.955   2.992
   75DSPC   GL1 1039   3.401   4.576   3.200
   75DSPC   GL2 1040   3.740   4.470   3.143
   75DSPC   C1A 1041   3.094   4.464   3.527
   75DSPC   C2A 1042   2.813   4.283   3.802
   75DSPC   C3A 1043   2.492   3.982   3.763
   75DSPC   C4A 1044   2.539   3.533   3.664
   75DSPC   C5A 1045   2.921   3.293   3.631
   75DSPC   C1B 1046   3.935   4.141   3.400
   75DSPC   C2B 1047   3.805   3.811   3.704
   75DSPC   C3B 1048   3.841   3.347   3.844
   75DSPC   C4B 1049   3.787   2.873   3.782
   75DSPC   C5B 1050   3.897   2.420   3.614
   76DSPC   NC3 1051   7.403   5.899   1.411
   76DSPC   PO4 1052   7.088   5.905   1.770
   76DSPC   GL1 1053   7.128   5.517   1.494
   76DSPC   GL2 1054   7.450   5.380   1.328
   76DSPC   C1A 1055   6.970   5.287   1.127
   76DSPC   C2A 1056   7.024   5.202   0.688
   76DSPC   C3A 1057   7.241   5.365   0.345
   76DSPC   C4A 1058   0.069   5.676   0.339
   76DSPC   C5A 1059   0.425   5.801   0.576
   76DSPC   C1B 1060   0.429   5.352   1.388
   76DSPC   C2B 1061   0.754   5.567   1.163
   76DSPC   C3B 1062   0.771   5.926   0.961
   76DSPC   C4B 1063   0.840   6.108   0.553
   76DSPC   C5B 1064   1.163   5.977   0.235
   77DSPC   NC3 1065   0.897   1.013   3.071
   77DSPC   PO4 1066   0.759   0.839   3.504
   77DSPC   GL1 1067   0.712   0.438   3.776
   77DSPC   GL2 1068   0.765   0.145   3.614
   77DSPC   C1A 1069   0.693   0.051   4.101
   77DSPC   C2A 1070   0.715   7.167   4.382
   77DSPC   C3A 1071   0.689   6.703   4.288
   77DSPC   C4A 1072   0.623   6.521   3.852
   77DSPC   C5A 1073   0.349   6.259   3.554
   77DSPC   C1B 1074   1.054   7.330   3.767
   77DSPC   C2B 1075   1.017   6.973   4.021
   77DSPC   C3B 1076   1.192   6.568   4.147
   77DSPC   C4B 1077   1.511   6.225   4.167
   77DSPC   C5B 1078   1.814   6.142   3.807
   78DSPC   NC3 1079   2.023   4.188   1.682
   78DSPC   PO4 1080   1.749   3.817   1.644
   78DSPC   GL1 1081   1.573   4.208   1.476
   78DSPC   GL2 1082   1.781   4.392   1.254
   78DSPC   C1A 1083   1.290   4.458   1.190
   78DSPC   C2A 1084   1.045   4.810   1.130
   78DSPC   C3A 1085   0.709   5.072   1.063
   78DSPC   C4A 1086   0.602   5.349   0.729
   78DSPC   C5A 1087   0.858   5.590   0.420
   78DSPC   C1B 1088   1.861   4.707   0.898
   78DSPC   C2B 1089   1.731   4.981   0.528
   78DSPC   C3B 1090   1.750   5.016   0.061
   78DSPC   C4B 1091   1.833   5.063   7.095
   78DSPC   C5B 1092   2.061   5.222   6.723
   79DSPC   NC3 1093   4.157   2.950   5.147
   79DSPC   PO4 1094   4.219   2.949   5.612
   79DSPC   GL1 1095   4.440   2.555   5.740
   79DSPC   GL2 1096   4.726   2.485   5.878
   79DSPC   C1A 1097   4.338   2.121   5.889
   79DSPC   C2A 1098   4.097   1.766   6.055
   79DSPC   C3A 1099   4.153   1.327   6.061
   79DSPC   C4A 1100   4.229   0.935   5.849
   79DSPC   C5A 1101   4.531   0.869   5.490
   79DSPC   C1B 1102   4.831   2.090   6.080
   79DSPC   C2B 1103   5.075   1.713   5.974
   79DSPC   C3B 1104   5.267   1.593   5.557
   79DSPC   C4B 1105   5.329   1.365   5.141
   79DSPC   C5B 1106   5.394   1.017   4.812
   80DSPC   NC3 1107   6.164   4.370   6.625
   80DSPC   PO4 1108   6.489   4.503   6.965
   80DSPC   GL1 1109   6.478   4.745   7.364
   80DSPC   GL2 1110   6.148   4.800   7.497
   80DSPC   C1A 1111   6.728   5.120   0.065
   80DSPC   C2A 1112   6.729   5.484   0.367
   80DSPC   C3A 1113   6.723   5.618   0.805
   80DSPC   C4A 1114   6.463   5.457   1.136
   80DSPC   C5A 1115   6.110   5.161   1.118
   80DSPC   C1B 1116   6.183   4.399   0.222
   80DSPC   C2B 1117   6.461   4.068   0.437
   80DSPC   C3B 1118   6.448   3.979   0.869
   80DSPC   C4B 1119   6.124   3.849   1.155
   80DSPC   C5B 1120   5.751   3.566   1.108
   81DSPC   NC3 1121   4.577   4.050   6.693
   81DSPC   PO4 1122   4.439   4.120   7.162
   81DSPC   GL1 1123   4.161   3.735   7.240
   81DSPC   GL2 1124   4.194   3.425   7.043
   81DSPC   C1A 1125   4.073   3.353   0.017
   81DSPC   C2A 1126   4.325   3.016   0.088
   81DSPC   C3A 1127   4.320   2.572   0.057
   81DSPC   C4A 1128   3.977   2.285   7.366
   81DSPC   C5A 1129   3.985   1.805   7.319
   81DSPC   C1B 1130   4.548   3.161   7.168
   81DSPC   C2B 1131   4.646   2.744   7.074
   81DSPC   C3B 1132   4.832   2.352   6.891
   81DSPC   C4B 1133   5.015   2.122   6.565
   81DSPC   C5B 1134   5.338   2.085   6.214
   82DSPC   NC3 1135   1.957   5.795   1.223
   82DSPC   PO4 1136   1.712   5.951   1.534
   82DSPC   GL1 1137   2.096   5.801   1.679
   82DSPC   GL2 1138   2.130   6.102   1.832
   82DSPC   C1A 1139   2.432   5.739   1.984
   82DSPC   C2A 1140   2.673   5.864   2.307
   82DSPC   C3A 1141   2.791   6.278   2.477
   82DSPC   C4A 1142   2.893   6.744   2.560
   82DSPC   C5A 1143   3.250   7.045   2.527
   82DSPC   C1B 1144   2.323   6.254   2.220
   82DSPC   C2B 1145   2.403   6.570   2.554
   82DSPC   C3B 1146   2.430   6.837   2.899
   82DSPC   C4B 1147   2.327   7.263   2.902
   82DSPC   C5B 1148   2.538   0.145   2.960
   83DSPC   NC3 1149   0.348   6.205   0.908
   83DSPC   PO4 1150   0.116   6.384   0.548
   83DSPC   GL1 1151   7.358   6.636   0.272
   83DSPC   GL2 1152   0.092   6.856   0.136
   83DSPC   C1A 1153   7.147   6.774   7.375
   83DSPC   C2A 1154   6.898   6.736   7.001
   83DSPC   C3A 1155   6.764   7.058   6.748
   83DSPC   C4A 1156   6.976   7.456   6.726
   83DSPC   C5A 1157   7.177   0.365   6.736
   83DSPC   C1B 1158   0.144   6.830   7.173
   83DSPC   C2B 1159   0.289   7.128   6.835
   83DSPC   C3B 1160   0.577   7.388   6.568
   83DSPC   C4B 1161   0.723   0.292   6.388
   83DSPC   C5B 1162   1.017   0.624   6.579
   84DSPC   NC3 1163   5.630   2.207   1.747
   84DSPC   PO4 1164   5.958   2.112   2.056
   84DSPC   GL1 1165   5.853   1.786   1.737
   84DSPC   GL2 1166   5.497   1.717   1.664
   84DSPC   C1A 1167   6.005   1.584   1.356
   84DSPC   C2A 1168   6.305   1.250   1.259
   84DSPC   C3A 1169   6.440   0.825   1.365
   84DSPC   C4A 1170   6.233   0.433   1.521
   84DSPC   C5A 1171   6.066   0.025   1.701
   84DSPC   C1B 1172   5.690   1.311   1.650
   84DSPC   C2B 1173   5.515   0.899   1.621
   84DSPC   C3B 1174   5.402   0.464   1.663
   84DSPC   C4B 1175   5.569   0.055   1.530
   84DSPC   C5B 1176   5.336   7.144   1.611
   85DSPC   NC3 1177   7.469   5.040   5.455
   85DSPC   PO4 1178   7.234   5.464   5.525
   85DSPC   GL1 1179   0.052   5.757   5.666
   85DSPC   GL2 1180   0.053   5.878   5.322
   85DSPC   C1A 1181   0.028   6.041   6.051
   85DSPC   C2A 1182   7.492   6.456   6.295
   85DSPC   C3A 1183   7.419   6.726   6.700
   85DSPC   C4A 1184   7.279   7.093   6.943
   85DSPC   C5A 1185   7.400   0.012   7.049
   85DSPC   C1B 1186   7.292   6.150   5.599
   85DSPC   C2B 1187   7.061   6.531   5.481
   85DSPC   C3B 1188   6.841   6.819   5.176
   85DSPC   C4B 1189   6.519   7.058   4.914
   85DSPC   C5B 1190   6.229   7.432   4.868
   86DSPC   NC3 1191   1.558   4.383   3.668
   86DSPC   PO4 1192   1.595   3.947   3.411
   86DSPC   GL1 1193   1.891   3.542   3.368
   86DSPC   GL2 1194   1.987   3.240   3.592
   86DSPC   C1A 1195   2.343   3.320   3.249
   86DSPC   C2A 1196   2.739   3.594   3.191
   86DSPC   C3A 1197   3.189   3.622   3.263
   86DSPC   C4A 1198   3.391   3.519   3.627
   86DSPC   C5A 1199   3.355   3.167   3.927
   86DSPC   C1B 1200   2.293   3.212   3.960
   86DSPC   C2B 1201   2.764   3.182   4.121
   86DSPC   C3B 1202   3.180   3.184   4.408
   86DSPC   C4B 1203   3.412   3.165   4.832
   86DSPC   C5B 1204   3.621   2.987   5.232
   87DSPC   NC3 1205   3.409   5.744   4.713
   87DSPC   PO4 1206   3.154   5.355   4.537
   87DSPC   GL1 1207   3.054   5.022   4.852
   87DSPC   GL2 1208   3.095   5.049   5.225
   87DSPC   C1A 1209   3.150   4.596   4.988
   87DSPC   C2A 1210   3.339   4.306   5.328
   87DSPC   C3A 1211   3.604   4.312   5.724
   87DSPC   C4A 1212   3.677   4.062   6.110
   87DSPC   C5A 1213   3.916   3.725   6.289
   87DSPC   C1B 1214   3.253   5.010   5.674
   87DSPC   C2B 1215   3.480   4.745   5.969
   87DSPC   C3B 1216   3.456   4.469   6.333
   87DSPC   C4B 1217   3.468   4.523   6.766
   87DSPC   C5B 1218   3.350   4.839   7.059
   88DSPC   NC3 1219   1.615   1.556   5.995
   88DSPC   PO4 1220   2.003   1.766   6.152
   88DSPC   GL1 1221   2.154   1.709   6.575
   88DSPC   GL2 1222   2.212   2.073   6.593
   88DSPC   C1A 1223   2.253   1.337   6.841
   88DSPC   C2A 1224   2.566   1.334   7.169
   88DSPC   C3A 1225   2.926   1.602   7.288
   88DSPC   C4A 1226   3.232   1.936   7.227
   88DSPC   C5A 1227   3.611   2.060   7.077
   88DSPC   C1B 1228   2.527   2.346   6.848
   88DSPC   C2B 1229   2.769   2.735   7.019
   88DSPC   C3B 1230   2.980   3.001   7.354
   88DSPC   C4B 1231   3.421   2.999   7.434
   88DSPC   C5B 1232   3.752   3.155   7.165
   89DSPC   NC3 1233   6.031   6.347   3.363
   89DSPC   PO4 1234   6.157   5.968   3.103
   89DSPC   GL1 1235   6.395   5.919   3.464
   89DSPC   GL2 1236   6.341   5.594   3.616
   89DSPC   C1A 1237   6.804   5.792   3.620
   89DSPC   C2A 1238   6.979   5.433   3.779
   89DSPC   C3A 1239   7.184   5.086   3.954
   89DSPC   C4A 1240   7.124   4.676   4.082
   89DSPC   C5A 1241   6.856   4.545   4.381
   89DSPC   C1B 1242   6.539   5.166   3.797
   89DSPC   C2B 1243   6.626   4.711   3.943
   89DSPC   C3B 1244   6.427   4.366   4.212
   89DSPC   C4B 1245   6.120   4.207   4.484
   89DSPC   C5B 1246   5.754   4.285   4.737
   90DSPC   NC3 1247   4.001   5.406   6.143
   90DSPC   PO4 1248   3.907   5.382   6.579
   90DSPC   GL1 1249   3.745   5.753   6.403
   90DSPC   GL2 1250   3.862   5.892   6.131
   90DSPC   C1A 1251   3.523   6.145   6.476
   90DSPC   C2A 1252   3.394   6.225   6.920
   90DSPC   C3A 1253   3.309   6.542   7.243
   90DSPC   C4A 1254   3.266   6.656   0.175
   90DSPC   C5A 1255   3.507   6.588   0.570
   90DSPC   C1B 1256   4.019   6.179   6.466
   90DSPC   C2B 1257   3.791   6.498   6.741
   90DSPC   C3B 1258   3.783   6.725   7.152
   90DSPC   C4B 1259   3.923   6.986   0.021
   90DSPC   C5B 1260   4.243   7.222   0.286
   91DSPC   NC3 1261   6.539   0.626   0.602
   91DSPC   PO4 1262   6.856   0.423   0.307
   91DSPC   GL1 1263   6.795   0.633   7.408
   91DSPC   GL2 1264   6.552   0.943   7.351
   91DSPC   C1A 1265   6.809   0.743   6.965
   91DSPC   C2A 1266   6.603   1.166   6.824
   91DSPC   C3A 1267   6.414   1.627   6.770
   91DSPC   C4A 1268   6.239   2.083   6.685
   91DSPC   C5A 1269   5.989   2.410   6.424
   91DSPC   C1B 1270   6.376   1.403   7.244
   91DSPC   C2B 1271   6.233   1.887   7.193
   91DSPC   C3B 1272   6.323   2.362   7.126
   91DSPC   C4B 1273   6.273   2.702   6.781
   91DSPC   C5B 1274   6.230   3.112   6.504
   92DSPC   NC3 1275   1.139   0.763   2.042
   92DSPC   PO4 1276   0.805   0.650   2.295
   92DSPC   GL1 1277   1.258   0.541   2.445
   92DSPC   GL2 1278   1.587   0.588   2.237
   92DSPC   C1A 1279   1.483   0.159   2.605
   92DSPC   C2A 1280   1.664   7.211   2.651
   92DSPC   C3A 1281   2.036   6.971   2.560
   92DSPC   C4A 1282   2.448   7.057   2.429
   92DSPC   C5A 1283   2.815   7.190   2.296
   92DSPC   C1B 1284   2.023   0.758   2.350
   92DSPC   C2B 1285   2.476   0.650   2.478
   92DSPC   C3B 1286   2.756   0.259   2.501
   92DSPC   C4B 1287   3.140   0.040   2.494
   92DSPC   C5B 1288   3.560   7.456   2.686
   93DSPC   NC3 1289   1.739   6.347   1.224
   93DSPC   PO4 1290   1.314   6.158   1.299
   93DSPC   GL1 1291   1.268   5.718   1.507
   93DSPC   GL2 1292   0.930   5.892   1.504
   93DSPC   C1A 1293   1.327   5.268   1.775
   93DSPC   C2A 1294   1.328   4.881   2.030
   93DSPC   C3A 1295   1.345   4.874   2.519
   93DSPC   C4A 1296   1.410   5.303   2.751
   93DSPC   C5A 1297   1.523   5.717   2.970
   93DSPC   C1B 1298   0.643   5.824   1.839
   93DSPC   C2B 1299   0.723   5.668   2.282
   93DSPC   C3B 1300   0.568   5.746   2.729
   93DSPC   C4B 1301   0.303   5.900   3.105
   93DSPC   C5B 1302   7.492   5.873   3.473
   94DSPC   NC3 1303   2.106   4.743   4.216
   94DSPC   PO4 1304   2.333   5.102   4.442
   94DSPC   GL1 1305   2.681   4.806   4.580
   94DSPC   GL2 1306   3.027   4.858   4.411
   94DSPC   C1A 1307   2.659   4.507   4.939
   94DSPC   C2A 1308   2.909   4.129   5.056
   94DSPC   C3A 1309   3.129   3.731   4.942
   94DSPC   C4A 1310   3.402   3.622   4.595
   94DSPC   C5A 1311   3.719   3.304   4.428
   94DSPC   C1B 1312   3.384   4.582   4.511
   94DSPC   C2B 1313   3.753   4.323   4.529
   94DSPC   C3B 1314   4.094   4.140   4.465
   94DSPC   C4B 1315   4.355   3.818   4.544
   94DSPC   C5B 1316   4.453   3.465   4.256
   95DSPC   NC3 1317   6.821   1.827   4.261
   95DSPC   PO4 1318   7.098   1.476   4.402
   95DSPC   GL1 1319   6.805   1.384   4.060
   95DSPC   GL2 1320   6.467   1.439   4.174
   95DSPC   C1A 1321   6.603   1.073   3.758
   95DSPC   C2A 1322   6.237   0.847   3.545
   95DSPC   C3A 1323   6.012   0.464   3.688
   95DSPC   C4A 1324   5.712   0.358   4.033
   95DSPC   C5A 1325   5.266   0.363   4.145
   95DSPC   C1B 1326   6.007   1.482   4.237
   95DSPC   C2B 1327   5.639   1.382   3.997
   95DSPC   C3B 1328   5.278   1.140   3.871
   95DSPC   C4B 1329   4.844   1.187   4.012
   95DSPC   C5B 1330   4.437   1.218   3.821
   96DSPC   NC3 1331   0.697   6.249   2.844
   96DSPC   PO4 1332   0.922   6.047   3.194
   96DSPC   GL1 1333   1.194   6.413   3.262
   96DSPC   GL2 1334   1.150   6.757   3.250
   96DSPC   C1A 1335   1.631   6.578   3.379
   96DSPC   C2A 1336   1.899   6.903   3.560
   96DSPC   C3A 1337   2.329   6.998   3.433
   96DSPC   C4A 1338   2.706   7.154   3.220
   96DSPC   C5A 1339   2.837   7.244   2.797
   96DSPC   C1B 1340   1.503   7.056   3.238
   96DSPC   C2B 1341   1.523   7.453   3.079
   96DSPC   C3B 1342   1.541   0.382   3.054
   96DSPC   C4B 1343   1.626   0.679   2.730
   96DSPC   C5B 1344   1.817   1.106   2.680
   97DSPC   NC3 1345   4.261   1.958   1.441
   97DSPC   PO4 1346   4.626   2.029   1.163
   97DSPC   GL1 1347   5.029   2.034   1.099
   97DSPC   GL2 1348   5.127   1.759   1.298
   97DSPC   C1A 1349   5.265   2.364   0.853
   97DSPC   C2A 1350   5.337   2.852   0.922
   97DSPC   C3A 1351   5.558   3.098   1.239
   97DSPC   C4A 1352   5.972   3.024   1.391
   97DSPC   C5A 1353   6.320   2.776   1.203
   97DSPC   C1B 1354   5.466   2.068   1.262
   97DSPC   C2B 1355   5.915   2.098   1.292
   97DSPC   C3B 1356   6.355   2.214   1.371
   97DSPC   C4B 1357   6.757   2.032   1.509
   97DSPC   C5B 1358   7.137   1.812   1.640
   98DSPC   NC3 1359   5.025   2.774   6.701
   98DSPC   PO4 1360   5.258   3.033   6.967
   98DSPC   GL1 1361   5.694   3.167   7.042
   98DSPC   GL2 1362   5.811   3.405   6.724
   98DSPC   C1A 1363   5.919   3.246   7.456
   98DSPC   C2A 1364   6.318   3.067   0.009
   98DSPC   C3A 1365   6.622   3.193   7.176
   98DSPC   C4A 1366   6.557   3.445   6.773
   98DSPC   C5A 1367   6.674   3.819   6.502
   98DSPC   C1B 1368   5.736   3.687   6.340
   98DSPC   C2B 1369   5.918   3.812   5.929
   98DSPC   C3B 1370   6.199   4.054   5.655
   98DSPC   C4B 1371   6.575   4.329   5.591
   98DSPC   C5B 1372   6.963   4.332   5.306
   99DSPC   NC3 1373   3.599   4.965   5.304
   99DSPC   PO4 1374   3.909   5.141   5.081
   99DSPC   GL1 1375   3.723   5.511   5.302
   99DSPC   GL2 1376   3.384   5.451   5.447
   99DSPC   C1A 1377   3.465   5.919   5.248
   99DSPC   C2A 1378   3.046   5.967   5.044
   99DSPC   C3A 1379   2.603   6.118   4.967
   99DSPC   C4A 1380   2.379   6.439   5.218
   99DSPC   C5A 1381   2.221   6.586   5.655
   99DSPC   C1B 1382   3.168   5.786   5.647
   99DSPC   C2B 1383   3.010   6.109   5.919
   99DSPC   C3B 1384   2.715   6.361   6.153
   99DSPC   C4B 1385   2.504   6.766   6.074
   99DSPC   C5B 1386   2.112   6.940   6.283
  100DSPC   NC3 1387   5.310   4.073   4.970
  100DSPC   PO4 1388   4.993   3.710   4.952
  100DSPC   GL1 1389   4.688   3.522   4.668
  100DSPC   GL2 1390   4.851   3.768   4.410
  100DSPC   C1A 1391   4.198   3.374   4.694
  100DSPC   C2A 1392   3.886   3.726   4.736
  100DSPC   C3A 1393   4.000   4.126   4.963
  100DSPC   C4A 1394   4.106   4.547   4.834
  100DSPC   C5A 1395   3.928   4.799   4.498
  100DSPC   C1B 1396   4.820   3.950   3.976
  100DSPC   C2B 1397   4.562   4.328   3.844
  100DSPC   C3B 1398   4.158   4.544   3.638
  100DSPC   C4B 1399   3.881   4.863   3.467
  100DSPC   C5B 1400   3.707   5.271   3.656
  101DSPC   NC3 1401   0.329   6.173   5.652
  101DSPC   PO4 1402   0.285   6.582   5.492
  101DSPC   GL1 1403   0.267   6.651   5.950
  101DSPC   GL2 1404   0.573   6.795   6.056
  101DSPC   C1A 1405   0.183   6.955   6.327
  101DSPC   C2A 1406   7.450   7.317   6.502
  101DSPC   C3A 1407   0.162   0.172   6.647
  101DSPC   C4A 1408   0.415   0.126   7.001
  101DSPC   C5A 1409   0.757   0.272   7.262
  101DSPC   C1B 1410   0.810   7.173   6.156
  101DSPC   C2B 1411   1.112   7.452   6.338
  101DSPC   C3B 1412   1.374   0.297   6.442
  101DSPC   C4B 1413   1.658   0.668   6.569
  101DSPC   C5B 1414   1.952   0.882   6.910
  102DSPC   NC3 1415   7.016   6.728   3.968
  102DSPC   PO4 1416   6.604   6.628   4.187
  102DSPC   GL1 1417   6.222   6.920   4.192
  102DSPC   GL2 1418   6.155   7.242   3.986
  102DSPC   C1A 1419   5.976   7.216   4.476
  102DSPC   C2A 1420   5.780   0.124   4.642
  102DSPC   C3A 1421   5.569   0.533   4.536
  102DSPC   C4A 1422   5.509   0.816   4.185
  102DSPC   C5A 1423   5.796   0.915   3.848
  102DSPC   C1B 1424   5.862   7.460   3.658
  102DSPC   C2B 1425   5.545   0.290   3.563
  102DSPC   C3B 1426   5.368   0.644   3.716
  102DSPC   C4B 1427   4.965   0.704   3.898
  102DSPC   C5B 1428   4.542   0.718   3.707
  103DSPC   NC3 1429   3.304   1.368   2.543
  103DSPC   PO4 1430   2.897   1.177   2.339
  103DSPC   GL1 1431   2.889   0.758   2.118
  103DSPC   GL2 1432   3.143   0.496   2.222
  103DSPC   C1A 1433   2.966   0.509   1.718
  103DSPC   C2A 1434   3.043   0.092   1.509
  103DSPC   C3A 1435   3.295   7.400   1.167
  103DSPC   C4A 1436   3.717   7.480   0.966
  103DSPC   C5A 1437   4.103   7.210   0.894
  103DSPC   C1B 1438   3.521   0.178   2.194
  103DSPC   C2B 1439   3.932   7.439   2.317
  103DSPC   C3B 1440   4.408   7.415   2.461
  103DSPC   C4B 1441   4.832   7.199   2.417
  103DSPC   C5B 1442   5.173   7.089   2.112
  104DSPC   NC3 1443   1.697   6.060   0.277
  104DSPC   PO4 1444   1.823   5.690   0.014
  104DSPC   GL1 1445   2.045   5.520   7.136
  104DSPC   GL2 1446   2.281   5.260   7.262
  104DSPC   C1A 1447   2.436   5.541   6.874
  104DSPC   C2A 1448   2.759   5.278   6.997
  104DSPC   C3A 1449   2.838   4.837   7.052
  104DSPC   C4A 1450   3.032   4.403   7.000
  104DSPC   C5A 1451   2.851   4.003   7.151
  104DSPC   C1B 1452   2.317   4.883   7.006
  104DSPC   C2B 1453   2.070   4.545   6.841
  104DSPC   C3B 1454   2.303   4.268   6.563
  104DSPC   C4B 1455   2.306   3.852   6.460
  104DSPC   C5B 1456   1.965   3.567   6.535
  105DSPC   NC3 1457   3.789   6.634   1.784
  105DSPC   PO4 1458   3.682   6.376   1.398
  105DSPC   GL1 1459   3.411   6.569   1.103
  105DSPC   GL2 1460   3.161   6.445   1.286
  105DSPC   C1A 1461   3.050   6.449   0.792
  105DSPC   C2A 1462   3.032   6.246   0.357
  105DSPC   C3A 1463   3.145   6.065   7.410
  105DSPC   C4A 1464   3.120   5.632   7.195
  105DSPC   C5A 1465   3.110   5.186   7.348
  105DSPC   C1B 1466   2.741   6.329   1.213
  105DSPC   C2B 1467   2.511   5.956   0.979
  105DSPC   C3B 1468   2.161   5.649   0.774
  105DSPC   C4B 1469   1.908   5.248   0.929
  105DSPC   C5B 1470   1.481   5.050   0.979
  106DSPC   NC3 1471   3.767   1.638   3.325
  106DSPC   PO4 1472   3.740   1.502   2.851
  106DSPC   GL1 1473   3.447   1.816   2.607
  106DSPC   GL2 1474   3.502   2.193   2.548
  106DSPC   C1A 1475   3.036   1.861   2.353
  106DSPC   C2A 1476   2.660   2.103   2.169
  106DSPC   C3A 1477   2.471   2.530   2.171
  106DSPC   C4A 1478   2.383   2.986   2.085
  106DSPC   C5A 1479   2.233   3.401   1.940
  106DSPC   C1B 1480   3.525   2.688   2.488
  106DSPC   C2B 1481   3.482   3.181   2.459
  106DSPC   C3B 1482   3.444   3.609   2.234
  106DSPC   C4B 1483   3.431   4.051   2.106
  106DSPC   C5B 1484   3.238   4.418   2.303
  107DSPC   NC3 1485   2.081   3.987   2.881
  107DSPC   PO4 1486   2.458   4.011   2.681
  107DSPC   GL1 1487   2.413   4.520   2.698
  107DSPC   GL2 1488   2.199   4.867   2.574
  107DSPC   C1A 1489   2.689   4.865   2.556
  107DSPC   C2A 1490   2.986   4.890   2.248
  107DSPC   C3A 1491   2.973   4.976   1.775
  107DSPC   C4A 1492   2.686   4.824   1.424
  107DSPC   C5A 1493   2.351   4.935   1.060
  107DSPC   C1B 1494   2.137   5.064   2.154
  107DSPC   C2B 1495   1.808   5.121   1.802
  107DSPC   C3B 1496   1.660   5.329   1.406
  107DSPC   C4B 1497   1.516   5.551   1.057
  107DSPC   C5B 1498   1.570   5.469   0.603
  108DSPC   NC3 1499   6.431   3.992   6.932
  108DSPC   PO4 1500   5.974   3.972   6.870
  108DSPC   GL1 1501   6.166   3.597   6.947
  108DSPC   GL2 1502   6.296   3.591   7.264
  108DSPC   C1A 1503   6.149   3.152   7.006
  108DSPC   C2A 1504   5.983   2.791   7.222
  108DSPC   C3A 1505   5.899   2.389   7.468
  108DSPC   C4A 1506   5.893   2.208   0.398
  108DSPC   C5A 1507   5.713   2.086   0.807
  108DSPC   C1B 1508   6.277   3.522   0.230
  108DSPC   C2B 1509   6.038   3.187   0.488
  108DSPC   C3B 1510   5.907   2.938   0.884
  108DSPC   C4B 1511   5.673   2.592   1.167
  108DSPC   C5B 1512   5.491   2.672   1.556
  109DSPC   NC3 1513   4.664   1.588   1.428
  109DSPC   PO4 1514   4.336   1.611   1.074
  109DSPC   GL1 1515   4.480   1.919   0.727
  109DSPC   GL2 1516   4.833   2.072   0.677
  109DSPC   C1A 1517   4.306   2.280   0.499
  109DSPC   C2A 1518   3.849   2.351   0.352
  109DSPC   C3A 1519   3.530   2.716   0.357
  109DSPC   C4A 1520   3.701   3.158   0.326
  109DSPC   C5A 1521   4.093   3.268   0.519
  109DSPC   C1B 1522   4.849   2.439   0.478
  109DSPC   C2B 1523   4.557   2.773   0.475
  109DSPC   C3B 1524   4.603   3.239   0.438
  109DSPC   C4B 1525   4.866   3.594   0.386
  109DSPC   C5B 1526   5.281   3.713   0.248
  110DSPC   NC3 1527   6.564   6.842   0.597
  110DSPC   PO4 1528   6.226   6.900   0.298
  110DSPC   GL1 1529   6.639   6.972   0.088
  110DSPC   GL2 1530   6.918   7.123   0.245
  110DSPC   C1A 1531   6.881   7.197   7.237
  110DSPC   C2A 1532   6.925   0.153   7.199
  110DSPC   C3A 1533   7.223   0.483   7.227
  110DSPC   C4A 1534   0.120   0.548   7.001
  110DSPC   C5A 1535   0.561   0.559   6.811
  110DSPC   C1B 1536   7.310   7.258   7.489
  110DSPC   C2B 1537   0.265   7.288   7.349
  110DSPC   C3B 1538   0.702   7.244   7.144
  110DSPC   C4B 1539   1.140   7.406   7.206
  110DSPC   C5B 1540   1.600   0.009   7.237
  111DSPC   NC3 1541   1.486   3.852   5.793
  111DSPC   PO4 1542   1.277   4.237   5.964
  111DSPC   GL1 1543   0.851   4.211   5.826
  111DSPC   GL2 1544   0.823   4.549   5.692
  111DSPC   C1A 1545   0.382   4.320   5.760
  111DSPC   C2A 1546   0.027   4.618   5.818
  111DSPC   C3A 1547   0.034   5.057   5.979
  111DSPC   C4A 1548   0.128   5.505   6.071
  111DSPC   C5A 1549   0.475   5.781   5.980
  111DSPC   C1B 1550   0.457   4.863   5.675
  111DSPC   C2B 1551   0.382   5.332   5.657
  111DSPC   C3B 1552   0.520   5.732   5.461
  111DSPC   C4B 1553   0.755   6.116   5.329
  111DSPC   C5B 1554   1.119   6.372   5.193
  112DSPC   NC3 1555   7.014   5.892   4.560
  112DSPC   PO4 1556   7.126   5.910   5.006
  112DSPC   GL1 1557   6.853   5.527   5.026
  112DSPC   GL2 1558   6.490   5.610   5.029
  112DSPC   C1A 1559   6.579   5.167   5.246
  112DSPC   C2A 1560   6.387   4.853   5.564
  112DSPC   C3A 1561   6.081   4.518   5.447
  112DSPC   C4A 1562   5.665   4.430   5.240
  112DSPC   C5A 1563   5.255   4.686   5.186
  112DSPC   C1B 1564   6.328   5.205   4.804
  112DSPC   C2B 1565   5.945   5.086   4.713
  112DSPC   C3B 1566   5.659   4.781   4.871
  112DSPC   C4B 1567   5.303   4.536   4.716
  112DSPC   C5B 1568   4.976   4.280   4.614
  113DSPC   NC3 1569   2.245   5.324   3.328
  113DSPC   PO4 1570   2.520   5.712   3.424
  113DSPC   GL1 1571   2.199   6.055   3.523
  113DSPC   GL2 1572   1.937   6.065   3.235
  113DSPC   C1A 1573   2.146   6.497   3.346
  113DSPC   C2A 1574   2.047   6.471   2.917
  113DSPC   C3A 1575   1.920   6.488   2.499
  113DSPC   C4A 1576   1.599   6.765   2.343
  113DSPC   C5A 1577   1.257   6.576   2.123
  113DSPC   C1B 1578   1.535   6.250   3.015
  113DSPC   C2B 1579   1.166   6.515   2.799
  113DSPC   C3B 1580   0.795   6.760   2.838
  113DSPC   C4B 1581   0.406   6.683   2.633
  113DSPC   C5B 1582   0.292   6.581   2.186
  114DSPC   NC3 1583   2.658   6.759   4.255
  114DSPC   PO4 1584   3.049   6.515   4.285
  114DSPC   GL1 1585   3.033   6.946   4.471
  114DSPC   GL2 1586   2.686   7.104   4.636
  114DSPC   C1A 1587   3.442   7.107   4.628
  114DSPC   C2A 1588   3.662   7.470   4.438
  114DSPC   C3A 1589   3.355   0.275   4.281
  114DSPC   C4A 1590   2.992   0.458   4.557
  114DSPC   C5A 1591   2.876   0.837   4.857
  114DSPC   C1B 1592   2.561   0.062   4.603
  114DSPC   C2B 1593   2.582   0.433   4.883
  114DSPC   C3B 1594   2.445   0.828   5.162
  114DSPC   C4B 1595   2.082   1.144   5.129
  114DSPC   C5B 1596   1.705   1.404   4.973
  115DSPC   NC3 1597   3.420   6.916   6.809
  115DSPC   PO4 1598   3.331   7.243   7.142
  115DSPC   GL1 1599   3.259   7.461   0.047
  115DSPC   GL2 1600   2.970   0.023   7.395
  115DSPC   C1A 1601   2.999   0.162   0.399
  115DSPC   C2A 1602   2.931   0.588   0.499
  115DSPC   C3A 1603   2.684   0.908   0.229
  115DSPC   C4A 1604   2.556   0.833   7.270
  115DSPC   C5A 1605   2.543   0.907   6.809
  115DSPC   C1B 1606   2.631   0.240   7.125
  115DSPC   C2B 1607   2.276   0.472   6.939
  115DSPC   C3B 1608   1.820   0.375   6.944
  115DSPC   C4B 1609   1.345   0.373   6.948
  115DSPC   C5B 1610   0.956   0.159   6.807
  116DSPC   NC3 1611   7.404   6.335   5.111
  116DSPC   PO4 1612   7.109   6.378   4.730
  116DSPC   GL1 1613   7.292   6.513   4.326
  116DSPC   GL2 1614   7.083   6.264   4.195
  116DSPC   C1A 1615   0.178   6.742   4.119
  116DSPC   C2A 1616   0.515   7.036   3.920
  116DSPC   C3A 1617   0.784   6.937   3.564
  116DSPC   C4A 1618   0.628   6.614   3.290
  116DSPC   C5A 1619   0.256   6.422   3.064
  116DSPC   C1B 1620   7.407   6.376   3.857
  116DSPC   C2B 1621   7.361   6.357   3.399
  116DSPC   C3B 1622   7.345   6.089   3.003
  116DSPC   C4B 1623   0.077   5.858   2.636
  116DSPC   C5B 1624   0.259   5.452   2.456
  117DSPC   NC3 1625   0.026   5.388   4.289
  117DSPC   PO4 1626   7.332   5.809   4.179
  117DSPC   GL1 1627   6.857   5.846   4.100
  117DSPC   GL2 1628   6.572   5.583   4.078
  117DSPC   C1A 1629   6.477   6.053   3.917
  117DSPC   C2A 1630   6.062   6.030   3.768
  117DSPC   C3A 1631   5.794   5.685   3.635
  117DSPC   C4A 1632   5.537   5.426   3.935
  117DSPC   C5A 1633   5.157   5.277   4.205
  117DSPC   C1B 1634   6.273   5.273   4.295
  117DSPC   C2B 1635   5.806   5.130   4.245
  117DSPC   C3B 1636   5.473   4.967   4.451
  117DSPC   C4B 1637   5.180   5.036   4.787
  117DSPC   C5B 1638   4.805   5.221   4.970
  118DSPC   NC3 1639   1.153   0.291   3.998
  118DSPC   PO4 1640   1.304   0.095   4.428
  118DSPC   GL1 1641   1.677   0.087   4.718
  118DSPC   GL2 1642   1.633   0.420   4.894
  118DSPC   C1A 1643   2.104   0.269   4.808
  118DSPC   C2A 1644   2.168   0.716   4.753
  118DSPC   C3A 1645   2.390   1.113   4.727
  118DSPC   C4A 1646   2.178   1.528   4.782
  118DSPC   C5A 1647   1.813   1.770   4.617
  118DSPC   C1B 1648   1.673   0.875   4.983
  118DSPC   C2B 1649   1.438   1.121   5.297
  118DSPC   C3B 1650   1.224   1.540   5.214
  118DSPC   C4B 1651   1.026   1.971   5.041
  118DSPC   C5B 1652   0.644   2.168   5.240
  119DSPC   NC3 1653   5.571   6.481   4.057
  119DSPC   PO4 1654   5.815   6.854   3.954
  119DSPC   GL1 1655   6.115   6.950   3.622
  119DSPC   GL2 1656   6.012   6.860   3.294
  119DSPC   C1A 1657   6.569   6.867   3.554
  119DSPC   C2A 1658   6.940   6.655   3.326
  119DSPC   C3A 1659   7.263   6.598   2.955
  119DSPC   C4A 1660   0.007   6.372   2.602
  119DSPC   C5A 1661   0.039   6.141   2.205
  119DSPC   C1B 1662   6.048   7.257   3.063
  119DSPC   C2B 1663   6.208   7.358   2.628
  119DSPC   C3B 1664   6.461   7.414   2.227
  119DSPC   C4B 1665   6.574   7.497   1.779
  119DSPC   C5B 1666   6.478   0.033   1.341
  120DSPC   NC3 1667   3.357   3.826   5.725
  120DSPC   PO4 1668   3.645   3.445   5.760
  120DSPC   GL1 1669   3.686   3.337   6.219
  120DSPC   GL2 1670   3.575   3.042   6.373
  120DSPC   C1A 1671   3.876   3.355   6.654
  120DSPC   C2A 1672   3.688   3.631   6.984
  120DSPC   C3A 1673   3.399   3.945   7.152
  120DSPC   C4A 1674   3.156   3.808   0.025
  120DSPC   C5A 1675   3.198   3.382   0.231
  120DSPC   C1B 1676   3.747   2.866   6.757
  120DSPC   C2B 1677   3.657   2.610   7.108
  120DSPC   C3B 1678   3.468   2.392   7.447
  120DSPC   C4B 1679   3.611   1.977   0.115
  120DSPC   C5B 1680   4.035   1.842   0.335
  121DSPC   NC3 1681   4.946   1.339   3.082
  121DSPC   PO4 1682   5.173   1.691   3.304
  121DSPC   GL1 1683   5.401   1.884   2.913
  121DSPC   GL2 1684   5.353   1.953   2.532
  121DSPC   C1A 1685   5.810   2.044   2.757
  121DSPC   C2A 1686   6.025   2.451   2.643
  121DSPC   C3A 1687   6.028   2.777   2.300
  121DSPC   C4A 1688   5.881   2.784   1.870
  121DSPC   C5A 1689   6.004   2.537   1.536
  121DSPC   C1B 1690   5.070   1.930   2.114
  121DSPC   C2B 1691   5.111   2.112   1.667
  121DSPC   C3B 1692   5.101   2.441   1.317
  121DSPC   C4B 1693   4.869   2.676   0.939
  121DSPC   C5B 1694   5.014   2.957   0.551
  122DSPC   NC3 1695   0.330   3.608   2.418
  122DSPC   PO4 1696   0.654   3.965   2.322
  122DSPC   GL1 1697   0.861   4.384   2.392
  122DSPC   GL2 1698   1.207   4.437   2.277
  122DSPC   C1A 1699   0.844   4.846   2.470
  122DSPC   C2A 1700   0.825   5.285   2.615
  122DSPC   C3A 1701   1.063   5.666   2.658
  122DSPC   C4A 1702   1.413   5.775   2.481
  122DSPC   C5A 1703   1.786   5.560   2.534
  122DSPC   C1B 1704   0.872   4.658   1.995
  122DSPC   C2B 1705   0.989   4.913   1.636
  122DSPC   C3B 1706   1.425   4.883   1.459
  122DSPC   C4B 1707   1.885   4.874   1.369
  122DSPC   C5B 1708   2.236   4.564   1.368
  123DSPC   NC3 1709   3.061   4.514   5.722
  123DSPC   PO4 1710   3.006   4.115   5.972
  123DSPC   GL1 1711   3.277   3.815   6.188
  123DSPC   GL2 1712   3.244   3.440   6.095
  123DSPC   C1A 1713   3.459   3.612   6.523
  123DSPC   C2A 1714   3.391   3.255   6.772
  123DSPC   C3A 1715   3.270   2.885   6.961
  123DSPC   C4A 1716   3.207   2.425   6.973
  123DSPC   C5A 1717   3.305   2.088   6.681
  123DSPC   C1B 1718   3.258   2.970   5.992
  123DSPC   C2B 1719   3.488   2.720   5.678
  123DSPC   C3B 1720   3.586   2.287   5.652
  123DSPC   C4B 1721   3.685   1.899   5.811
  123DSPC   C5B 1722   3.871   1.516   5.671
  124DSPC   NC3 1723   0.552   3.413   4.850
  124DSPC   PO4 1724   0.690   3.803   4.620
  124DSPC   GL1 1725   0.475   3.494   4.387
  124DSPC   GL2 1726   0.145   3.542   4.506
  124DSPC   C1A 1727   0.285   3.380   3.999
  124DSPC   C2A 1728   0.082   3.008   3.823
  124DSPC   C3A 1729   0.114   2.606   4.007
  124DSPC   C4A 1730   7.356   2.337   4.274
  124DSPC   C5A 1731   7.188   2.163   4.665
  124DSPC   C1B 1732   7.347   3.272   4.772
  124DSPC   C2B 1733   6.954   3.001   4.822
  124DSPC   C3B 1734   6.523   2.802   4.968
  124DSPC   C4B 1735   6.312   2.440   5.216
  124DSPC   C5B 1736   5.966   2.196   5.472
  125DSPC   NC3 1737   2.120   4.345   7.332
  125DSPC   PO4 1738   2.139   3.885   7.212
  125DSPC   GL1 1739   2.435   3.944   6.903
  125DSPC   GL2 1740   2.580   3.620   6.840
  125DSPC   C1A 1741   2.783   4.073   6.649
  125DSPC   C2A 1742   3.232   4.078   6.618
  125DSPC   C3A 1743   3.683   4.055   6.653
  125DSPC   C4A 1744   4.072   3.829   6.749
  125DSPC   C5A 1745   4.356   3.550   6.556
  125DSPC   C1B 1746   2.863   3.217   6.823
  125DSPC   C2B 1747   3.083   2.936   6.499
  125DSPC   C3B 1748   3.397   2.578   6.512
  125DSPC   C4B 1749   3.775   2.350   6.685
  125DSPC   C5B 1750   4.071   2.036   6.876
  126DSPC   NC3 1751   4.214   1.578   3.030
  126DSPC   PO4 1752   4.077   1.239   3.280
  126DSPC   GL1 1753   4.540   1.319   3.349
  126DSPC   GL2 1754   4.775   1.541   3.605
  126DSPC   C1A 1755   4.882   1.062   3.526
  126DSPC   C2A 1756   5.299   1.020   3.375
  126DSPC   C3A 1757   5.640   1.246   3.491
  126DSPC   C4A 1758   5.834   1.643   3.565
  126DSPC   C5A 1759   6.145   1.818   3.873
  126DSPC   C1B 1760   5.135   1.616   3.975
  126DSPC   C2B 1761   5.419   1.672   4.397
  126DSPC   C3B 1762   5.509   1.967   4.809
  126DSPC   C4B 1763   5.683   2.363   5.075
  126DSPC   C5B 1764   5.911   2.699   5.377
  127DSPC   NC3 1765   3.711   7.451   7.423
  127DSPC   PO4 1766   3.594   0.310   0.196
  127DSPC   GL1 1767   3.450   0.207   0.622
  127DSPC   GL2 1768   3.316   7.381   0.659
  127DSPC   C1A 1769   3.078   0.279   0.903
  127DSPC   C2A 1770   2.639   0.281   0.776
  127DSPC   C3A 1771   2.431   0.495   0.414
  127DSPC   C4A 1772   2.277   0.454   7.473
  127DSPC   C5A 1773   2.139   0.077   7.241
  127DSPC   C1B 1774   2.882   7.306   0.813
  127DSPC   C2B 1775   2.647   6.880   0.847
  127DSPC   C3B 1776   2.485   6.446   0.786
  127DSPC   C4B 1777   2.084   6.196   0.837
  127DSPC   C5B 1778   1.718   5.935   0.786
  128DSPC   NC3 1779   3.109   0.160   6.923
  128DSPC   PO4 1780   3.396   0.292   7.211
  128DSPC   GL1 1781   3.662   0.034   6.955
  128DSPC   GL2 1782   3.490   7.416   6.679
  128DSPC   C1A 1783   3.964   7.188   7.006
  128DSPC   C2A 1784   4.164   6.828   6.797
  128DSPC   C3A 1785   4.099   6.675   6.356
  128DSPC   C4A 1786   3.819   6.396   6.057
  128DSPC   C5A 1787   3.537   6.104   5.811
  128DSPC   C1B 1788   3.428   7.242   6.257
  128DSPC   C2B 1789   3.358   6.963   5.907
  128DSPC   C3B 1790   3.482   6.593   5.679
  128DSPC   C4B 1791   3.193   6.304   5.472
  128DSPC   C5B 1792   2.919   6.462   5.157
  129W        W 1793   0.460   2.488   2.882
  130W        W 1794   3.295   3.303   2.679
  131W        W 1795   1.213   3.294   0.205
  132W        W 1796   1.296   1.446   1.188
  133W        W 1797   1.802   2.109   0.786
  134W        W 1798   0.126   0.762   3.104
  135W        W 1799   0.888   0.042   2.906
  136W        W 1800   2.231   1.301   0.363
  137W        W 1801   2.801   0.735   3.454
  138W        W 1802   0.167   0.527   2.579
  139W        W 1803   0.690   2.218   2.248
  140W        W 1804   1.085   1.718   3.011
  141W        W 1805   0.972   2.945   1.710
  142W        W 1806   2.093   2.634   2.844
  143W        W 1807   1.662   1.867   3.048
  144W        W 1808   0.071   1.258   3.570
  145W        W 1809   2.903   2.793   3.169
  146W        W 1810   1.011   2.633   2.166
  147W        W 1811   3.474   2.416   1.456
  148W        W 1812   0.900   3.575   1.045
  149W        W 1813   2.691   1.457   0.232
  150W        W 1814   3.176   1.809   0.987
  151W        W 1815   0.106   0.660   1.285
  152W        W 1816   2.892   1.267   1.759
  153W        W 1817   0.350   2.884   1.674
  154W        W 1818   1.691   3.234   0.544
  155W        W 1819   0.897   2.590   2.652
  156W        W 1820   1.270   1.950   1.271
  157W        W 1821   0.740   1.989   0.129
  158W        W 1822   0.395   1.022   0.308
  159W        W 1823   2.920   3.320   3.064
  160W        W 1824   1.846   0.962   0.748
  161W        W 1825   2.906   1.213   3.118
  162W        W 1826   3.619   2.869   1.252
  163W        W 1827   1.123   2.127   2.515
  164W        W 1828   2.204   1.881   0.997
  165W        W 1829   0.532   1.177   3.393
  166W        W 1830   2.343   0.249   3.247
  167W        W 1831   3.362   2.550   3.369
  168W        W 1832   2.792   0.717   2.965
  169W        W 1833   2.985   1.789   3.639
  170W        W 1834   0.725   3.365   1.625
  171W        W 1835   1.383   1.082   0.611
  172W        W 1836   1.114   3.549   3.372
  173W        W 1837   1.040   0.085   0.607
  174W        W 1838   3.361   0.619   1.642
  175W        W 1839   3.469   2.990   1.739
  176W        W 1840   1.953   1.396   3.043
  177W        W 1841   3.339   0.899   2.210
  178W        W 1842   3.606   0.299   2.984
  179W        W 1843   2.824   1.318   0.861
  180W        W 1844   2.754   2.694   1.688
  181W        W 1845   2.650   1.773   0.666
  182W        W 1846   0.339   0.786   2.143
  183W        W 1847   1.398   2.900   1.518
  184W        W 1848   1.606   3.471   2.667
  185W        W 1849   0.077   1.065   2.472
  186W        W 1850   2.937   0.860   1.490
  187W        W 1851   3.348   1.011   3.267
  188W        W 1852   1.764   2.350   3.078
  189W        W 1853   1.594   0.708   1.068
  190W        W 1854   2.082   3.235   2.164
  191W        W 1855   1.464   2.795   1.980
  192W        W 1856   0.947   0.726   0.045
  193W        W 1857   1.748   1.335   2.439
  194W        W 1858   0.016   2.044   2.194
  195W        W 1859   1.720   1.862   0.352
  196W        W 1860   1.726   1.258   1.173
  197W        W 1861   1.284   2.246   2.981
  198W        W 1862   2.088   2.028   3.198
  199W        W 1863   2.705   2.058   3.091
  200W        W 1864   0.423   3.482   1.063
  201W        W 1865   1.755   2.812   3.188
  202W        W 1866   2.425   2.529   0.233
  203W        W 1867   3.576   0.828   0.829
  204W        W 1868   0.070   3.417   2.860
  205W        W 1869   0.487   2.643   2.392
  206W        W 1870   2.196   1.817   0.479
  207W        W 1871   2.455   2.483   3.226
  208W        W 1872   0.138   0.237   0.291
  209W        W 1873   0.710   1.735   3.281
  210W        W 1874   0.481   0.783   0.776
  211W        W 1875   0.002   0.694   0.314
  212W        W 1876   0.788   2.083   2.875
  213W        W 1877   1.406   1.750   2.598
  214W        W 1878   3.174   0.109   2.860
  215W        W 1879   3.560   1.919   0.537
  216W        W 1880   2.423   2.251   0.636
  217W        W 1881   2.897   3.551   0.331
  218W        W 1882   1.491   0.117   0.290
  219W        W 1883   3.030   2.716   0.233
  220W        W 1884   1.233   2.803   2.981
  221W        W 1885   2.570   3.453   0.747
  222W        W 1886   2.635   2.820   2.163
  223W        W 1887   2.938   3.164   1.871
  224W        W 1888   0.167   2.858   3.141
  225W        W 1889   3.297   2.153   1.880
  226W        W 1890   3.011   3.593   1.100
  227W        W 1891   1.110   0.613   1.545
  228W        W 1892   0.267   1.599   0.265
  229W        W 1893   3.401   3.257   0.962
  230W        W 1894   3.238   0.581   0.581
  231W        W 1895   3.083   2.902   1.442
  232W        W 1896   3.112   1.458   1.347
  233W        W 1897   1.214   3.466   1.478
  234W        W 1898   0.643   2.786   0.242
  235W        W 1899   1.282   2.323   0.890
  236W        W 1900   2.381   1.705   2.971
  237W        W 1901   0.832   1.705   2.544
  238W        W 1902   1.205   1.214   0.129
  239W        W 1903   2.648   2.726   1.197
  240W        W 1904   0.246   1.650   3.374
  241W        W 1905   2.732   2.589   0.681
  242W        W 1906   1.634   1.647   0.766
  243W        W 1907   3.555   0.487   2.064
  244W        W 1908   0.094   3.317   1.440
  245W        W 1909   0.603   2.504   0.976
  246W        W 1910   3.392   1.942   1.421
  247W        W 1911   1.713   0.072   0.830
  248W        W 1912   2.426   0.941   1.689
  249W        W 1913   0.112   2.528   2.021
  250W        W 1914   2.163   0.955   1.225
  251W        W 1915   1.113   2.953   3.505
  252W        W 1916   2.481   0.892   0.844
  253W        W 1917   2.439   3.000   3.081
  254W        W 1918   0.779   3.290   2.545
  255W        W 1919   0.818   1.990   1.072
  256W        W 1920   1.189   2.997   2.467
  257W        W 1921   1.567   0.416   1.508
  258W        W 1922   0.343   1.900   1.327
  259W        W 1923   0.757   3.602   2.080
  260W        W 1924   3.616   2.224   0.954
  261W        W 1925   0.972   3.087   1.194
  262W        W 1926   2.050   2.383   1.154
  263W        W 1927   0.402   2.001   0.729
  264W        W 1928   0.300   3.378   1.865
  265W        W 1929   2.482   0.149   1.203
  266W        W 1930   1.892   0.396   0.419
  267W        W 1931   3.427   0.996   1.294
  268W        W 1932   3.055   2.366   2.919
  269W        W 1933   3.236   2.821   2.810
  270W        W 1934   1.940   1.719   2.690
  271W        W 1935   2.429   1.179   2.951
  272W        W 1936   2.706   3.233   1.356
  273W        W 1937   2.048   2.551   3.504
  274W        W 1938   2.999   2.263   1.488
  275W        W 1939   2.640   3.329   2.239
  276W        W 1940   3.165   2.218   4.296
  277W        W 1941   0.811   1.294   4.996
  278W        W 1942   2.801   0.735   7.098
  279W        W 1943   0.167   0.527   6.223
  280W        W 1944   0.220   1.319   5.669
  281W        W 1945   1.113   1.210   6.906
  282W        W 1946   0.049   1.746   5.463
  283W        W 1947   1.681   2.151   7.214
  284W        W 1948   3.474   2.416   5.100
  285W        W 1949   0.900   3.575   4.689
  286W        W 1950   2.725   1.769   4.849
  287W        W 1951   2.691   1.457   3.876
  288W        W 1952   1.899   2.601   6.016
  289W        W 1953   2.305   3.018   6.209
  290W        W 1954   0.106   0.660   4.929
  291W        W 1955   0.350   2.884   5.318
  292W        W 1956   0.106   3.018   5.816
  293W        W 1957   0.897   2.590   6.296
  294W        W 1958   3.521   0.117   5.305
  295W        W 1959   1.588   2.461   4.994
  296W        W 1960   1.846   0.962   4.392
  297W        W 1961   3.229   3.360   5.164
  298W        W 1962   3.619   2.869   4.896
  299W        W 1963   0.012   1.712   4.586
  300W        W 1964   1.123   2.127   6.159
  301W        W 1965   2.327   1.391   4.537
  302W        W 1966   0.532   1.177   7.037
  303W        W 1967   2.193   0.775   4.098
  304W        W 1968   0.725   3.365   5.269
  305W        W 1969   1.040   0.085   4.251
  306W        W 1970   2.335   0.658   3.663
  307W        W 1971   0.732   0.909   5.502
  308W        W 1972   0.286   2.109   6.276
  309W        W 1973   2.145   3.302   4.982
  310W        W 1974   3.319   2.305   3.826
  311W        W 1975   1.755   2.134   6.222
  312W        W 1976   2.824   1.318   4.505
  313W        W 1977   3.111   1.051   4.147
  314W        W 1978   2.754   2.694   5.332
  315W        W 1979   2.650   1.773   4.310
  316W        W 1980   2.964   1.771   5.363
  317W        W 1981   3.117   1.838   6.614
  318W        W 1982   2.405   3.433   6.486
  319W        W 1983   2.233   2.710   5.129
  320W        W 1984   2.670   3.587   5.468
  321W        W 1985   0.942   0.498   4.664
  322W        W 1986   0.016   2.044   5.838
  323W        W 1987   1.284   2.246   6.625
  324W        W 1988   2.705   2.058   6.735
  325W        W 1989   0.637   0.770   5.031
  326W        W 1990   2.470   1.682   5.412
  327W        W 1991   2.750   1.481   5.811
  328W        W 1992   1.955   2.155   5.745
  329W        W 1993   0.070   3.417   6.504
  330W        W 1994   2.196   1.817   4.123
  331W        W 1995   1.039   1.008   4.640
  332W        W 1996   0.138   0.237   3.935
  333W        W 1997   1.424   2.556   6.225
  334W        W 1998   0.710   1.735   6.925
  335W        W 1999   2.377   0.282   4.253
  336W        W 2000   0.322   0.214   5.830
  337W        W 2001   0.370   1.177   5.200
  338W        W 2002   3.448   1.674   3.721
  339W        W 2003   2.146   1.481   5.698
  340W        W 2004   3.560   1.919   4.181
  341W        W 2005   2.423   2.251   4.280
  342W        W 2006   0.404   2.508   7.157
  343W        W 2007   1.636   3.488   7.207
  344W        W 2008   1.491   0.117   3.934
  345W        W 2009   3.030   2.716   3.877
  346W        W 2010   0.799   0.809   6.763
  347W        W 2011   2.809   2.072   5.758
  348W        W 2012   1.528   1.557   7.182
  349W        W 2013   1.883   2.922   4.828
  350W        W 2014   2.635   2.820   5.807
  351W        W 2015   0.167   2.858   6.785
  352W        W 2016   0.880   0.198   5.133
  353W        W 2017   2.501   1.040   5.825
  354W        W 2018   3.297   2.153   5.524
  355W        W 2019   0.624   2.911   6.947
  356W        W 2020   3.238   0.581   4.225
  357W        W 2021   1.235   1.000   6.506
  358W        W 2022   0.531   3.425   6.756
  359W        W 2023   3.160   2.544   4.696
  360W        W 2024   3.537   1.266   4.063
  361W        W 2025   2.272   1.333   6.159
  362W        W 2026   0.836   1.400   5.651
  363W        W 2027   0.008   2.973   6.318
  364W        W 2028   0.322   3.375   6.084
  365W        W 2029   3.117   1.601   4.192
  366W        W 2030   2.648   2.726   4.841
  367W        W 2031   0.246   1.650   7.018
  368W        W 2032   2.732   2.589   4.325
  369W        W 2033   2.821   0.451   3.933
  370W        W 2034   2.652   1.210   4.940
  371W        W 2035   3.555   0.487   5.708
  372W        W 2036   3.392   1.942   5.065
  373W        W 2037   2.041   3.640   6.157
  374W        W 2038   0.112   2.528   5.665
  375W        W 2039   1.365   0.490   4.306
  376W        W 2040   1.169   1.974   7.155
  377W        W 2041   2.368   2.365   5.991
  378W        W 2042   0.522   2.970   6.426
  379W        W 2043   2.481   0.892   4.488
  380W        W 2044   2.439   3.000   6.725
  381W        W 2045   0.779   3.290   6.189
  382W        W 2046   0.387   2.079   6.786
  383W        W 2047   1.189   2.997   6.111
  384W        W 2048   1.697   1.351   3.952
  385W        W 2049   3.616   2.224   4.598
  386W        W 2050   2.146   1.491   5.111
  387W        W 2051   1.471   0.828   6.063
  388W        W 2052   0.287   0.544   5.372
  389W        W 2053   2.751   1.569   6.376
  390W        W 2054   3.145   2.627   5.596
  391W        W 2055   1.806   3.111   5.427
  392W        W 2056   0.300   3.378   5.509
  393W        W 2057   0.480   0.666   7.143
  394W        W 2058   0.211   1.266   4.476
  395W        W 2059   0.902   1.255   4.201
  396W        W 2060   1.613   3.580   5.350
  397W        W 2061   2.827   3.042   6.287
  398W        W 2062   2.411   3.191   5.398
  399W        W 2063   2.430   2.171   4.992
  400W        W 2064   1.324   0.742   6.936
  401W        W 2065   2.761   2.060   6.231
  402W        W 2066   2.429   1.179   6.595
  403W        W 2067   1.708   2.953   6.323
  404W        W 2068   2.048   2.551   7.148
  405W        W 2069   0.653   2.504   5.487
  406W        W 2070   2.999   2.263   5.132
  407W        W 2071   1.639   1.110   6.963
  408W        W 2072   1.398   2.531   7.112
  409W        W 2073   0.811   4.938   1.352
  410W        W 2074   0.126   4.406   3.104
  411W        W 2075   2.582   4.074   1.793
  412W        W 2076   2.231   4.945   0.363
  413W        W 2077   0.167   4.171   2.579
  414W        W 2078   0.220   4.963   2.025
  415W        W 2079   1.085   5.362   3.011
  416W        W 2080   2.602   6.475   3.560
  417W        W 2081   0.484   4.019   1.167
  418W        W 2082   3.637   5.214   2.424
  419W        W 2083   0.507   7.173   0.369
  420W        W 2084   0.900   7.219   1.045
  421W        W 2085   3.176   5.453   0.987
  422W        W 2086   0.735   6.805   0.686
  423W        W 2087   0.106   4.304   1.285
  424W        W 2088   3.083   4.904   0.008
  425W        W 2089   1.292   3.999   2.364
  426W        W 2090   3.521   3.761   1.661
  427W        W 2091   0.740   5.633   0.129
  428W        W 2092   2.906   4.857   3.118
  429W        W 2093   0.532   4.821   3.393
  430W        W 2094   0.422   3.738   1.552
  431W        W 2095   2.190   4.085   2.113
  432W        W 2096   2.193   4.419   0.454
  433W        W 2097   3.376   6.812   3.208
  434W        W 2098   3.362   6.194   3.369
  435W        W 2099   0.725   7.009   1.625
  436W        W 2100   3.004   4.494   0.956
  437W        W 2101   1.040   3.729   0.607
  438W        W 2102   2.120   3.650   1.795
  439W        W 2103   2.145   6.946   1.338
  440W        W 2104   3.319   5.949   0.182
  441W        W 2105   2.824   4.962   0.861
  442W        W 2106   3.111   4.695   0.503
  443W        W 2107   2.920   6.735   0.892
  444W        W 2108   2.650   5.417   0.666
  445W        W 2109   0.339   4.430   2.143
  446W        W 2110   0.077   4.709   2.472
  447W        W 2111   0.604   4.125   0.356
  448W        W 2112   0.942   4.142   1.020
  449W        W 2113   0.947   4.370   0.045
  450W        W 2114   0.423   7.126   1.063
  451W        W 2115   2.425   6.173   0.233
  452W        W 2116   3.576   4.472   0.829
  453W        W 2117   0.054   7.133   0.624
  454W        W 2118   1.316   6.426   0.279
  455W        W 2119   1.871   4.562   0.048
  456W        W 2120   0.138   3.881   0.291
  457W        W 2121   0.710   5.379   3.281
  458W        W 2122   2.377   3.926   0.609
  459W        W 2123   3.059   3.929   1.962
  460W        W 2124   3.448   5.318   0.077
  461W        W 2125   0.002   4.338   0.314
  462W        W 2126   2.013   7.204   0.350
  463W        W 2127   0.159   5.711   0.047
  464W        W 2128   0.415   5.289   2.804
  465W        W 2129   3.560   5.563   0.537
  466W        W 2130   0.799   4.453   3.119
  467W        W 2131   0.554   4.504   2.720
  468W        W 2132   3.633   5.126   1.365
  469W        W 2133   2.157   6.610   0.299
  470W        W 2134   0.880   3.842   1.489
  471W        W 2135   3.011   7.237   1.100
  472W        W 2136   3.112   5.102   1.347
  473W        W 2137   1.214   7.110   1.478
  474W        W 2138   0.531   7.069   3.112
  475W        W 2139   0.764   4.980   2.938
  476W        W 2140   3.537   4.910   0.419
  477W        W 2141   1.205   4.858   0.129
  478W        W 2142   0.322   7.019   2.440
  479W        W 2143   0.246   5.294   3.374
  480W        W 2144   2.821   4.095   0.289
  481W        W 2145   2.041   7.284   2.513
  482W        W 2146   1.713   3.716   0.830
  483W        W 2147   1.365   4.134   0.662
  484W        W 2148   1.169   5.618   3.511
  485W        W 2149   0.779   6.934   2.545
  486W        W 2150   0.178   6.044   0.438
  487W        W 2151   3.018   6.790   3.602
  488W        W 2152   1.913   3.747   1.357
  489W        W 2153   0.972   6.731   1.194
  490W        W 2154   2.628   4.599   0.304
  491W        W 2155   1.218   6.859   0.694
  492W        W 2156   0.300   7.022   1.865
  493W        W 2157   0.480   4.310   3.499
  494W        W 2158   2.665   5.226   3.374
  495W        W 2159   2.482   3.793   1.203
  496W        W 2160   1.613   7.224   1.706
  497W        W 2161   1.892   4.040   0.419
  498W        W 2162   1.261   5.303   0.304
  499W        W 2163   2.119   5.810   0.171
  500W        W 2164   2.709   6.711   0.386
  501W        W 2165   2.090   6.920   0.830
  502W        W 2166   0.745   5.153   0.104
  503W        W 2167   1.296   5.090   4.832
  504W        W 2168   0.811   4.938   4.996
  505W        W 2169   0.126   4.406   6.748
  506W        W 2170   1.113   4.854   6.906
  507W        W 2171   1.085   5.362   6.655
  508W        W 2172   1.313   4.918   5.713
  509W        W 2173   1.605   5.702   5.356
  510W        W 2174   1.681   5.795   7.214
  511W        W 2175   0.071   4.902   7.214
  512W        W 2176   0.900   7.219   4.689
  513W        W 2177   2.725   5.413   4.849
  514W        W 2178   2.691   5.101   3.876
  515W        W 2179   1.899   6.245   6.016
  516W        W 2180   1.705   4.575   5.215
  517W        W 2181   3.521   3.761   5.305
  518W        W 2182   0.457   6.622   4.746
  519W        W 2183   2.204   5.525   4.641
  520W        W 2184   0.532   4.821   7.037
  521W        W 2185   2.190   4.085   5.757
  522W        W 2186   0.725   7.009   5.269
  523W        W 2187   3.511   6.512   3.731
  524W        W 2188   2.120   3.650   5.439
  525W        W 2189   0.286   5.753   6.276
  526W        W 2190   2.145   6.946   4.982
  527W        W 2191   1.976   6.890   6.621
  528W        W 2192   1.972   4.664   5.667
  529W        W 2193   2.083   5.627   5.296
  530W        W 2194   1.398   6.544   5.162
  531W        W 2195   0.077   4.709   6.116
  532W        W 2196   0.604   4.125   4.000
  533W        W 2197   1.110   5.365   4.409
  534W        W 2198   1.764   5.994   6.722
  535W        W 2199   1.464   6.439   5.624
  536W        W 2200   0.947   4.370   3.689
  537W        W 2201   1.748   4.979   6.083
  538W        W 2202   2.596   3.845   5.953
  539W        W 2203   1.726   4.902   4.817
  540W        W 2204   1.284   5.890   6.625
  541W        W 2205   2.705   5.702   6.735
  542W        W 2206   0.423   7.126   4.707
  543W        W 2207   1.755   6.456   6.832
  544W        W 2208   2.470   5.326   5.412
  545W        W 2209   2.750   5.125   5.811
  546W        W 2210   1.955   5.799   5.745
  547W        W 2211   2.097   4.194   5.205
  548W        W 2212   3.221   6.808   4.109
  549W        W 2213   1.039   4.652   4.640
  550W        W 2214   1.871   4.562   3.692
  551W        W 2215   0.138   3.881   3.935
  552W        W 2216   0.965   6.068   3.715
  553W        W 2217   1.414   3.939   7.111
  554W        W 2218   3.059   3.929   5.606
  555W        W 2219   0.788   5.727   6.519
  556W        W 2220   0.159   5.711   3.691
  557W        W 2221   0.894   6.122   6.817
  558W        W 2222   0.415   5.289   6.448
  559W        W 2223   3.030   6.360   3.877
  560W        W 2224   2.809   5.716   5.758
  561W        W 2225   0.554   4.504   6.364
  562W        W 2226   0.880   3.842   5.133
  563W        W 2227   1.299   5.855   4.025
  564W        W 2228   0.624   6.555   6.947
  565W        W 2229   1.110   4.257   5.189
  566W        W 2230   0.879   5.750   5.279
  567W        W 2231   2.418   5.445   5.994
  568W        W 2232   0.764   4.980   6.582
  569W        W 2233   0.832   5.349   6.188
  570W        W 2234   0.836   5.044   5.651
  571W        W 2235   0.551   5.167   4.647
  572W        W 2236   3.117   5.245   4.192
  573W        W 2237   0.246   5.294   7.018
  574W        W 2238   0.595   5.295   5.326
  575W        W 2239   0.094   6.961   5.084
  576W        W 2240   2.746   5.763   3.945
  577W        W 2241   2.898   6.006   7.194
  578W        W 2242   2.426   4.585   5.333
  579W        W 2243   2.368   6.009   5.991
  580W        W 2244   2.439   6.644   6.725
  581W        W 2245   1.124   5.236   5.324
  582W        W 2246   0.387   5.723   6.786
  583W        W 2247   0.818   5.634   4.716
  584W        W 2248   1.567   4.060   5.152
  585W        W 2249   0.343   5.544   4.971
  586W        W 2250   2.052   6.898   7.113
  587W        W 2251   3.018   6.790   7.246
  588W        W 2252   1.913   3.747   5.001
  589W        W 2253   0.972   6.731   4.838
  590W        W 2254   0.402   5.645   4.373
  591W        W 2255   0.287   4.188   5.372
  592W        W 2256   1.835   6.153   5.429
  593W        W 2257   1.806   6.755   5.427
  594W        W 2258   0.211   4.910   4.476
  595W        W 2259   1.008   5.507   5.727
  596W        W 2260   2.430   5.815   4.992
  597W        W 2261   1.261   5.303   3.948
  598W        W 2262   1.324   4.386   6.936
  599W        W 2263   1.144   4.970   6.177
  600W        W 2264   0.180   4.886   6.608
  601W        W 2265   1.940   5.363   6.334
  602W        W 2266   2.533   7.084   7.042
  603W        W 2267   1.708   6.597   6.323
  604W        W 2268   2.048   6.195   7.148
  605W        W 2269   3.728   3.595   3.359
  606W        W 2270   6.809   2.218   0.652
  607W        W 2271   6.939   3.303   2.679
  608W        W 2272   4.455   1.294   1.352
  609W        W 2273   5.121   3.201   3.141
  610W        W 2274   3.770   0.762   3.104
  611W        W 2275   3.811   0.527   2.579
  612W        W 2276   3.864   1.319   2.025
  613W        W 2277   6.980   2.112   2.620
  614W        W 2278   3.693   1.746   1.819
  615W        W 2279   7.000   1.501   3.265
  616W        W 2280   4.616   2.945   1.710
  617W        W 2281   5.737   2.634   2.844
  618W        W 2282   5.325   2.151   3.570
  619W        W 2283   3.715   1.258   3.570
  620W        W 2284   6.547   2.793   3.169
  621W        W 2285   4.655   2.633   2.166
  622W        W 2286   5.248   3.277   2.177
  623W        W 2287   6.964   1.347   2.746
  624W        W 2288   6.335   1.457   0.232
  625W        W 2289   5.949   3.018   2.565
  626W        W 2290   5.722   0.467   1.003
  627W        W 2291   3.994   2.884   1.674
  628W        W 2292   4.541   2.590   2.652
  629W        W 2293   4.936   0.355   2.364
  630W        W 2294   7.165   0.117   1.661
  631W        W 2295   4.039   1.022   0.308
  632W        W 2296   4.101   2.978   1.102
  633W        W 2297   6.564   3.320   3.064
  634W        W 2298   5.490   0.962   0.748
  635W        W 2299   6.550   1.213   3.118
  636W        W 2300   5.971   1.391   0.893
  637W        W 2301   4.066   0.094   1.552
  638W        W 2302   5.837   0.775   0.454
  639W        W 2303   7.020   3.168   3.208
  640W        W 2304   7.006   2.550   3.369
  641W        W 2305   5.027   1.082   0.611
  642W        W 2306   6.648   0.850   0.956
  643W        W 2307   4.758   3.549   3.372
  644W        W 2308   4.684   0.085   0.607
  645W        W 2309   7.005   0.619   1.642
  646W        W 2310   7.155   2.868   0.087
  647W        W 2311   4.062   2.071   1.789
  648W        W 2312   3.930   2.109   2.632
  649W        W 2313   6.983   0.899   2.210
  650W        W 2314   6.963   2.305   0.182
  651W        W 2315   7.250   0.299   2.984
  652W        W 2316   6.468   1.318   0.861
  653W        W 2317   6.564   3.091   0.892
  654W        W 2318   6.294   1.773   0.666
  655W        W 2319   6.761   1.838   2.970
  656W        W 2320   6.049   3.433   2.842
  657W        W 2321   6.043   0.763   2.606
  658W        W 2322   5.250   3.471   2.667
  659W        W 2323   6.738   1.744   2.434
  660W        W 2324   3.721   1.065   2.472
  661W        W 2325   6.992   1.011   3.267
  662W        W 2326   5.408   2.350   3.078
  663W        W 2327   5.726   3.235   2.164
  664W        W 2328   5.122   2.272   2.125
  665W        W 2329   6.892   2.995   2.251
  666W        W 2330   4.586   0.498   1.020
  667W        W 2331   4.632   0.177   0.122
  668W        W 2332   5.370   1.258   1.173
  669W        W 2333   5.732   2.028   3.198
  670W        W 2334   6.349   2.058   3.091
  671W        W 2335   4.855   0.814   1.989
  672W        W 2336   4.281   0.770   1.387
  673W        W 2337   5.399   2.812   3.188
  674W        W 2338   7.220   0.828   0.829
  675W        W 2339   4.131   2.643   2.392
  676W        W 2340   6.865   3.164   0.465
  677W        W 2341   5.840   1.817   0.479
  678W        W 2342   5.515   0.918   0.048
  679W        W 2343   6.099   2.483   3.226
  680W        W 2344   5.068   2.556   2.581
  681W        W 2345   4.962   0.205   1.104
  682W        W 2346   6.696   0.471   2.392
  683W        W 2347   4.384   0.432   1.896
  684W        W 2348   4.432   2.083   2.875
  685W        W 2349   7.216   1.719   2.851
  686W        W 2350   7.204   1.919   0.537
  687W        W 2351   7.254   0.430   3.465
  688W        W 2352   6.674   2.716   0.233
  689W        W 2353   6.453   2.072   2.114
  690W        W 2354   3.811   2.858   3.141
  691W        W 2355   4.554   0.850   2.379
  692W        W 2356   4.524   0.198   1.489
  693W        W 2357   4.268   2.911   3.303
  694W        W 2358   6.655   3.593   1.100
  695W        W 2359   4.754   0.613   1.545
  696W        W 2360   6.062   1.801   2.350
  697W        W 2361   7.045   3.257   0.962
  698W        W 2362   6.882   0.581   0.581
  699W        W 2363   4.873   1.131   1.563
  700W        W 2364   4.858   3.466   1.478
  701W        W 2365   6.804   2.544   1.052
  702W        W 2366   7.181   1.266   0.419
  703W        W 2367   4.476   1.705   2.544
  704W        W 2368   6.686   3.593   2.373
  705W        W 2369   6.477   0.227   3.367
  706W        W 2370   4.480   1.400   2.007
  707W        W 2371   4.849   1.214   0.129
  708W        W 2372   5.060   0.707   0.222
  709W        W 2373   6.856   0.517   3.234
  710W        W 2374   6.530   1.058   2.475
  711W        W 2375   4.239   1.651   1.682
  712W        W 2376   4.533   2.590   1.331
  713W        W 2377   7.281   2.500   2.503
  714W        W 2378   3.738   3.317   1.440
  715W        W 2379   4.247   2.504   0.976
  716W        W 2380   5.281   2.974   3.631
  717W        W 2381   6.542   2.362   3.550
  718W        W 2382   5.357   0.072   0.830
  719W        W 2383   6.012   2.365   2.347
  720W        W 2384   4.757   2.953   3.505
  721W        W 2385   6.125   0.892   0.844
  722W        W 2386   6.083   3.000   3.081
  723W        W 2387   3.987   1.900   1.327
  724W        W 2388   5.696   3.254   3.469
  725W        W 2389   7.254   2.348   2.991
  726W        W 2390   4.616   3.087   1.194
  727W        W 2391   4.815   0.197   1.888
  728W        W 2392   4.569   3.178   3.033
  729W        W 2393   4.046   2.001   0.729
  730W        W 2394   3.931   0.544   1.728
  731W        W 2395   6.272   0.955   0.304
  732W        W 2396   6.789   2.627   1.952
  733W        W 2397   5.450   3.111   1.783
  734W        W 2398   4.862   3.215   0.694
  735W        W 2399   6.471   3.042   2.643
  736W        W 2400   6.353   3.067   0.386
  737W        W 2401   6.880   2.821   2.810
  738W        W 2402   3.941   2.477   1.347
  739W        W 2403   4.088   1.774   2.237
  740W        W 2404   6.073   1.179   2.951
  741W        W 2405   5.352   2.953   2.679
  742W        W 2406   6.642   2.479   2.367
  743W        W 2407   6.284   3.329   2.239
  744W        W 2408   5.042   2.531   3.468
  745W        W 2409   6.809   2.218   4.296
  746W        W 2410   4.857   3.294   3.849
  747W        W 2411   4.940   1.446   4.832
  748W        W 2412   4.455   1.294   4.996
  749W        W 2413   3.770   0.762   6.748
  750W        W 2414   5.432   2.536   3.976
  751W        W 2415   4.757   1.210   6.906
  752W        W 2416   7.216   1.069   5.405
  753W        W 2417   6.980   2.112   6.264
  754W        W 2418   3.693   1.746   5.463
  755W        W 2419   5.306   1.867   6.692
  756W        W 2420   6.531   0.816   5.667
  757W        W 2421   7.022   2.743   4.259
  758W        W 2422   6.964   1.347   6.390
  759W        W 2423   6.369   1.769   4.849
  760W        W 2424   5.349   0.931   5.215
  761W        W 2425   5.335   3.234   4.188
  762W        W 2426   3.750   3.018   5.816
  763W        W 2427   7.165   0.117   5.305
  764W        W 2428   4.101   2.978   4.746
  765W        W 2429   6.873   3.360   5.164
  766W        W 2430   5.971   1.391   4.537
  767W        W 2431   4.176   1.177   7.037
  768W        W 2432   4.066   0.094   5.196
  769W        W 2433   5.482   0.626   6.920
  770W        W 2434   5.987   0.249   6.891
  771W        W 2435   7.006   2.550   7.013
  772W        W 2436   6.629   1.789   7.283
  773W        W 2437   4.369   3.365   5.269
  774W        W 2438   5.027   1.082   4.255
  775W        W 2439   4.596   0.366   6.919
  776W        W 2440   6.648   0.850   4.600
  777W        W 2441   7.113   2.990   5.383
  778W        W 2442   5.597   1.396   6.687
  779W        W 2443   5.764   0.006   5.439
  780W        W 2444   5.789   3.302   4.982
  781W        W 2445   6.608   1.771   5.363
  782W        W 2446   6.761   1.838   6.614
  783W        W 2447   6.581   0.860   5.134
  784W        W 2448   5.133   3.301   4.742
  785W        W 2449   4.248   0.481   4.000
  786W        W 2450   4.380   3.255   3.658
  787W        W 2451   4.754   1.721   4.409
  788W        W 2452   6.240   0.201   5.953
  789W        W 2453   5.599   2.155   5.745
  790W        W 2454   6.069   2.529   3.877
  791W        W 2455   7.220   0.828   4.473
  792W        W 2456   6.865   3.164   4.109
  793W        W 2457   5.840   1.817   4.123
  794W        W 2458   4.683   1.008   4.640
  795W        W 2459   6.452   0.389   4.487
  796W        W 2460   4.354   1.735   6.925
  797W        W 2461   5.058   0.295   7.111
  798W        W 2462   6.703   0.285   5.606
  799W        W 2463   6.696   0.471   6.036
  800W        W 2464   5.498   1.004   6.480
  801W        W 2465   3.646   0.694   3.958
  802W        W 2466   4.059   1.645   6.448
  803W        W 2467   7.216   1.719   6.495
  804W        W 2468   6.541   3.551   3.975
  805W        W 2469   6.972   1.358   5.730
  806W        W 2470   4.443   0.809   6.763
  807W        W 2471   7.003   0.794   6.423
  808W        W 2472   6.214   3.453   4.391
  809W        W 2473   6.430   2.234   4.640
  810W        W 2474   7.277   1.482   5.009
  811W        W 2475   5.499   0.115   6.728
  812W        W 2476   5.801   2.966   3.943
  813W        W 2477   6.145   1.040   5.825
  814W        W 2478   4.943   2.211   4.025
  815W        W 2479   6.941   2.153   5.524
  816W        W 2480   6.655   3.593   4.744
  817W        W 2481   6.756   1.458   4.991
  818W        W 2482   4.873   1.131   5.207
  819W        W 2483   4.858   3.466   5.122
  820W        W 2484   6.025   1.705   6.615
  821W        W 2485   5.916   1.333   6.159
  822W        W 2486   3.890   1.650   7.018
  823W        W 2487   6.856   0.114   4.314
  824W        W 2488   6.376   2.589   4.325
  825W        W 2489   6.465   0.451   3.933
  826W        W 2490   6.530   1.058   6.119
  827W        W 2491   6.296   1.210   4.940
  828W        W 2492   5.319   0.589   5.636
  829W        W 2493   7.199   0.487   5.708
  830W        W 2494   4.162   0.121   7.173
  831W        W 2495   7.036   1.942   5.065
  832W        W 2496   6.390   2.119   3.945
  833W        W 2497   5.807   0.955   4.869
  834W        W 2498   6.125   0.892   4.488
  835W        W 2499   4.768   1.592   5.324
  836W        W 2500   4.423   3.290   6.189
  837W        W 2501   7.168   3.407   3.790
  838W        W 2502   5.277   0.542   6.435
  839W        W 2503   7.254   2.348   6.635
  840W        W 2504   5.557   0.103   5.001
  841W        W 2505   5.115   0.828   6.063
  842W        W 2506   4.046   2.001   4.373
  843W        W 2507   6.395   1.569   6.376
  844W        W 2508   6.272   0.955   3.948
  845W        W 2509   6.144   0.118   3.768
  846W        W 2510   3.944   3.378   5.509
  847W        W 2511   6.141   1.136   7.144
  848W        W 2512   4.124   0.666   7.143
  849W        W 2513   4.546   1.255   4.201
  850W        W 2514   5.257   3.580   5.350
  851W        W 2515   6.471   3.042   6.287
  852W        W 2516   6.074   2.171   4.992
  853W        W 2517   7.217   0.024   4.785
  854W        W 2518   5.763   2.166   3.815
  855W        W 2519   6.353   3.067   4.030
  856W        W 2520   6.880   2.821   6.454
  857W        W 2521   5.584   1.719   6.334
  858W        W 2522   3.941   2.477   4.991
  859W        W 2523   6.405   2.060   6.231
  860W        W 2524   6.073   1.179   6.595
  861W        W 2525   4.837   3.308   5.592
  862W        W 2526   6.642   2.479   6.011
  863W        W 2527   5.692   2.551   7.148
  864W        W 2528   6.284   3.329   5.883
  865W        W 2529   5.283   1.110   6.963
  866W        W 2530   5.734   3.276   4.474
  867W        W 2531   5.168   2.769   4.489
  868W        W 2532   4.104   6.132   2.882
  869W        W 2533   6.939   6.947   2.679
  870W        W 2534   4.455   4.938   1.352
  871W        W 2535   5.446   5.753   0.786
  872W        W 2536   5.121   6.845   3.141
  873W        W 2537   6.226   4.074   1.793
  874W        W 2538   5.875   4.945   0.363
  875W        W 2539   5.432   6.180   0.332
  876W        W 2540   4.757   4.854   3.262
  877W        W 2541   5.288   5.089   1.647
  878W        W 2542   3.693   5.390   1.819
  879W        W 2543   4.729   5.362   3.011
  880W        W 2544   5.249   5.702   1.712
  881W        W 2545   5.325   5.795   3.570
  882W        W 2546   4.655   6.277   2.166
  883W        W 2547   4.341   3.973   2.471
  884W        W 2548   6.964   4.991   2.746
  885W        W 2549   4.379   6.805   0.686
  886W        W 2550   6.536   4.911   1.759
  887W        W 2551   4.541   6.234   2.652
  888W        W 2552   7.165   3.761   1.661
  889W        W 2553   4.101   6.622   1.102
  890W        W 2554   5.490   4.606   0.748
  891W        W 2555   6.550   4.857   3.118
  892W        W 2556   5.890   5.805   2.736
  893W        W 2557   4.767   5.771   2.515
  894W        W 2558   4.191   4.945   2.471
  895W        W 2559   4.176   4.821   3.393
  896W        W 2560   5.834   4.085   2.113
  897W        W 2561   5.482   4.270   3.276
  898W        W 2562   6.436   4.361   2.965
  899W        W 2563   5.027   4.726   0.611
  900W        W 2564   6.648   4.494   0.956
  901W        W 2565   7.015   4.976   0.901
  902W        W 2566   4.062   5.715   1.789
  903W        W 2567   7.113   6.634   1.739
  904W        W 2568   7.152   3.828   2.489
  905W        W 2569   6.963   5.949   0.182
  906W        W 2570   7.250   3.943   2.984
  907W        W 2571   5.399   5.778   2.578
  908W        W 2572   6.564   6.735   0.892
  909W        W 2573   6.761   5.482   2.970
  910W        W 2574   7.112   7.100   2.116
  911W        W 2575   6.738   5.388   2.434
  912W        W 2576   3.721   4.709   2.472
  913W        W 2577   6.581   4.504   1.490
  914W        W 2578   6.992   4.655   3.267
  915W        W 2579   5.133   6.945   1.098
  916W        W 2580   4.248   4.125   0.356
  917W        W 2581   4.380   6.899   0.014
  918W        W 2582   5.238   4.352   1.068
  919W        W 2583   6.594   3.949   1.496
  920W        W 2584   6.892   6.639   2.251
  921W        W 2585   5.108   6.439   1.980
  922W        W 2586   6.240   3.845   2.309
  923W        W 2587   6.349   5.702   3.091
  924W        W 2588   4.855   4.458   1.989
  925W        W 2589   6.114   5.326   1.768
  926W        W 2590   5.599   5.799   2.101
  927W        W 2591   3.714   7.061   2.860
  928W        W 2592   4.131   6.287   2.392
  929W        W 2593   5.597   4.403   2.430
  930W        W 2594   4.960   6.426   0.279
  931W        W 2595   4.683   4.652   0.996
  932W        W 2596   5.515   4.562   0.048
  933W        W 2597   3.850   6.309   0.839
  934W        W 2598   4.354   5.379   3.281
  935W        W 2599   4.014   4.821   1.556
  936W        W 2600   4.125   4.427   0.776
  937W        W 2601   6.696   4.115   2.392
  938W        W 2602   4.384   4.076   1.896
  939W        W 2603   5.498   4.648   2.836
  940W        W 2604   4.432   5.727   2.875
  941W        W 2605   5.790   5.125   2.054
  942W        W 2606   3.803   5.711   0.047
  943W        W 2607   4.538   6.122   3.173
  944W        W 2608   6.818   3.753   2.860
  945W        W 2609   7.216   5.363   2.851
  946W        W 2610   7.254   4.074   3.465
  947W        W 2611   6.972   5.002   2.086
  948W        W 2612   5.280   7.132   3.563
  949W        W 2613   6.674   6.360   0.233
  950W        W 2614   4.877   6.447   2.981
  951W        W 2615   4.675   6.380   0.732
  952W        W 2616   5.527   6.566   1.184
  953W        W 2617   6.582   6.808   1.871
  954W        W 2618   5.801   6.610   0.299
  955W        W 2619   3.811   6.502   3.141
  956W        W 2620   4.943   5.855   0.381
  957W        W 2621   4.268   6.555   3.303
  958W        W 2622   6.655   7.237   1.100
  959W        W 2623   4.523   5.750   1.635
  960W        W 2624   6.903   7.257   3.417
  961W        W 2625   6.727   6.546   1.442
  962W        W 2626   5.118   5.037   2.887
  963W        W 2627   6.229   6.190   2.750
  964W        W 2628   4.858   7.110   1.478
  965W        W 2629   6.804   6.188   1.052
  966W        W 2630   4.408   4.980   2.938
  967W        W 2631   4.926   5.967   0.890
  968W        W 2632   5.916   4.977   2.515
  969W        W 2633   6.686   7.237   2.373
  970W        W 2634   4.849   4.858   0.129
  971W        W 2635   3.652   6.617   2.674
  972W        W 2636   5.060   4.351   0.222
  973W        W 2637   6.856   4.161   3.234
  974W        W 2638   3.890   5.294   3.374
  975W        W 2639   6.856   3.758   0.670
  976W        W 2640   5.278   5.291   0.766
  977W        W 2641   6.530   4.702   2.475
  978W        W 2642   6.296   4.854   1.296
  979W        W 2643   5.319   4.233   1.992
  980W        W 2644   7.281   6.144   2.503
  981W        W 2645   7.199   4.131   2.064
  982W        W 2646   4.162   3.765   3.529
  983W        W 2647   4.813   5.618   3.511
  984W        W 2648   6.012   6.009   2.347
  985W        W 2649   4.757   6.597   3.505
  986W        W 2650   4.768   5.236   1.680
  987W        W 2651   4.031   5.723   3.142
  988W        W 2652   6.026   5.985   1.830
  989W        W 2653   4.462   5.634   1.072
  990W        W 2654   5.211   4.060   1.508
  991W        W 2655   3.822   6.044   0.438
  992W        W 2656   5.341   4.995   0.308
  993W        W 2657   3.987   5.544   1.327
  994W        W 2658   5.277   4.186   2.791
  995W        W 2659   7.042   5.641   3.317
  996W        W 2660   4.401   7.246   2.080
  997W        W 2661   4.616   6.731   1.194
  998W        W 2662   5.694   6.027   1.154
  999W        W 2663   6.789   6.271   1.952
 1000W        W 2664   4.862   6.859   0.694
 1001W        W 2665   3.855   4.910   0.832
 1002W        W 2666   4.546   4.899   0.557
 1003W        W 2667   5.536   4.040   0.419
 1004W        W 2668   7.217   3.668   1.141
 1005W        W 2669   4.905   5.303   0.304
 1006W        W 2670   5.763   5.810   0.171
 1007W        W 2671   4.788   4.970   2.533
 1008W        W 2672   6.880   6.465   2.810
 1009W        W 2673   3.824   4.886   2.964
 1010W        W 2674   5.584   5.363   2.690
 1011W        W 2675   6.073   4.823   2.951
 1012W        W 2676   4.837   6.952   1.948
 1013W        W 2677   4.297   6.148   1.843
 1014W        W 2678   6.643   5.907   1.488
 1015W        W 2679   6.284   6.973   2.239
 1016W        W 2680   4.262   6.702   2.109
 1017W        W 2681   5.734   6.920   0.830
 1018W        W 2682   5.042   6.175   3.468
 1019W        W 2683   6.939   6.947   6.323
 1020W        W 2684   4.857   6.938   3.849
 1021W        W 2685   3.770   4.406   6.748
 1022W        W 2686   4.729   5.362   6.655
 1023W        W 2687   7.000   5.145   6.909
 1024W        W 2688   4.616   6.589   5.354
 1025W        W 2689   5.737   6.278   6.488
 1026W        W 2690   5.306   5.511   6.692
 1027W        W 2691   3.715   4.902   7.214
 1028W        W 2692   6.547   6.437   6.813
 1029W        W 2693   4.655   6.277   5.810
 1030W        W 2694   4.151   7.173   4.013
 1031W        W 2695   4.341   3.973   6.115
 1032W        W 2696   6.964   4.991   6.390
 1033W        W 2697   5.949   6.662   6.209
 1034W        W 2698   4.379   6.805   4.330
 1035W        W 2699   3.994   6.528   5.318
 1036W        W 2700   4.176   4.821   7.037
 1037W        W 2701   4.066   3.738   5.196
 1038W        W 2702   7.006   6.194   7.013
 1039W        W 2703   6.629   5.433   7.283
 1040W        W 2704   4.369   7.009   5.269
 1041W        W 2705   7.155   6.512   3.731
 1042W        W 2706   7.152   3.828   6.133
 1043W        W 2707   5.597   5.040   6.687
 1044W        W 2708   5.398   5.432   4.887
 1045W        W 2709   7.250   3.943   6.628
 1046W        W 2710   5.399   5.778   6.222
 1047W        W 2711   5.727   5.627   5.296
 1048W        W 2712   6.761   5.482   6.614
 1049W        W 2713   7.112   7.100   5.760
 1050W        W 2714   6.049   7.077   6.486
 1051W        W 2715   5.250   7.115   6.311
 1052W        W 2716   6.738   5.388   6.078
 1053W        W 2717   5.877   6.354   5.129
 1054W        W 2718   4.380   6.899   3.658
 1055W        W 2719   6.314   7.231   5.468
 1056W        W 2720   5.726   6.879   5.808
 1057W        W 2721   5.122   5.916   5.769
 1058W        W 2722   6.892   6.639   5.895
 1059W        W 2723   6.240   3.845   5.953
 1060W        W 2724   4.632   3.821   3.766
 1061W        W 2725   6.340   3.878   6.516
 1062W        W 2726   4.928   5.890   6.625
 1063W        W 2727   6.349   5.702   6.735
 1064W        W 2728   4.067   7.126   4.707
 1065W        W 2729   4.434   5.941   4.191
 1066W        W 2730   6.114   5.326   5.412
 1067W        W 2731   3.698   7.133   4.268
 1068W        W 2732   4.960   6.426   3.923
 1069W        W 2733   4.609   6.068   3.715
 1070W        W 2734   3.966   3.858   5.830
 1071W        W 2735   6.703   3.929   5.606
 1072W        W 2736   6.696   4.115   6.036
 1073W        W 2737   4.384   4.076   5.540
 1074W        W 2738   5.498   4.648   6.480
 1075W        W 2739   5.657   7.204   3.994
 1076W        W 2740   3.803   5.711   3.691
 1077W        W 2741   7.216   5.363   6.495
 1078W        W 2742   7.254   4.074   7.109
 1079W        W 2743   6.674   6.360   3.877
 1080W        W 2744   7.003   4.438   6.423
 1081W        W 2745   5.172   5.201   7.182
 1082W        W 2746   4.675   6.380   4.376
 1083W        W 2747   6.279   6.464   5.807
 1084W        W 2748   4.524   3.842   5.133
 1085W        W 2749   4.943   5.855   4.025
 1086W        W 2750   4.268   6.555   6.947
 1087W        W 2751   4.523   5.750   5.279
 1088W        W 2752   6.062   5.445   5.994
 1089W        W 2753   7.045   6.901   4.606
 1090W        W 2754   6.727   6.546   5.086
 1091W        W 2755   5.118   5.037   6.531
 1092W        W 2756   4.858   7.110   5.122
 1093W        W 2757   4.287   6.430   3.886
 1094W        W 2758   6.804   6.188   4.696
 1095W        W 2759   4.408   4.980   6.582
 1096W        W 2760   4.926   5.967   4.534
 1097W        W 2761   6.856   4.161   6.878
 1098W        W 2762   6.292   6.370   4.841
 1099W        W 2763   3.890   5.294   7.018
 1100W        W 2764   5.685   7.284   6.157
 1101W        W 2765   4.813   5.618   7.155
 1102W        W 2766   6.083   6.644   6.725
 1103W        W 2767   6.026   5.985   5.474
 1104W        W 2768   6.949   3.895   3.862
 1105W        W 2769   5.790   5.135   5.111
 1106W        W 2770   4.815   3.841   5.532
 1107W        W 2771   3.731   4.007   4.449
 1108W        W 2772   6.789   6.271   5.596
 1109W        W 2773   5.450   6.755   5.427
 1110W        W 2774   3.944   7.022   5.509
 1111W        W 2775   4.124   4.310   7.143
 1112W        W 2776   5.257   7.224   5.350
 1113W        W 2777   6.471   6.686   6.287
 1114W        W 2778   6.055   6.835   5.398
 1115W        W 2779   6.074   5.815   4.992
 1116W        W 2780   6.699   6.010   6.563
 1117W        W 2781   4.968   4.386   6.936
 1118W        W 2782   6.880   6.465   6.454
 1119W        W 2783   5.584   5.363   6.334
 1120W        W 2784   6.405   5.704   6.231
 1121W        W 2785   5.352   6.597   6.323
 1122W        W 2786   6.642   6.123   6.011
 1123W        W 2787   5.692   6.195   7.148
 1124W        W 2788   4.297   6.148   5.487
 1125W        W 2789   6.284   6.973   5.883
 1126W        W 2790   4.262   6.702   5.753
 1127W        W 2791   5.283   4.754   6.963
 1128W        W 2792   5.042   6.175   7.112
   7.50000   7.50000   7.50000
